Program Version,EnergyPlus, Version 24.1.0-9d7789a3ac, YMD=2024.10.29 15:02
1,5,Environment Title[],Latitude[deg],Longitude[deg],Time Zone[],Elevation[m]
2,8,Day of Simulation[],Month[],Day of Month[],DST Indicator[1=yes 0=no],Hour[],StartMinute[],EndMinute[],DayType
3,5,Cumulative Day of Simulation[],Month[],Day of Month[],DST Indicator[1=yes 0=no],DayType  ! When Daily Report Variables Requested
4,2,Cumulative Days of Simulation[],Month[]  ! When Monthly Report Variables Requested
5,1,Cumulative Days of Simulation[] ! When Run Period Report Variables Requested
6,1,Calendar Year of Simulation[] ! When Annual Report Variables Requested
7,9,Environment,Site Outdoor Air Drybulb Temperature [C] !Monthly [Value,Min,Day,Hour,Minute,Max,Day,Hour,Minute]
8,1,TEST_OFFICE_0,Zone Air Temperature [C] !Hourly
9,1,TEST_OFFICE_0,Zone Air Relative Humidity [%] !Hourly
End of Data Dictionary
1,RUN PERIOD 1,  31.40, 121.45,   8.00,   5.50
2,1, 1, 1, 0, 1, 0.00,60.00,Sunday
8,12.689385914886836
9,53.00934102748619
2,1, 1, 1, 0, 2, 0.00,60.00,Sunday
8,12.344079893933893
9,54.22487907205684
2,1, 1, 1, 0, 3, 0.00,60.00,Sunday
8,12.000325762495331
9,55.466764155755044
2,1, 1, 1, 0, 4, 0.00,60.00,Sunday
8,11.642551160226532
9,56.79256738744528
2,1, 1, 1, 0, 5, 0.00,60.00,Sunday
8,11.315230572636963
9,58.03674387243527
2,1, 1, 1, 0, 6, 0.00,60.00,Sunday
8,10.966451752973022
9,59.3971010069684
2,1, 1, 1, 0, 7, 0.00,60.00,Sunday
8,10.582236863377679
9,60.93588220724025
2,1, 1, 1, 0, 8, 0.00,60.00,Sunday
8,10.351566746555076
9,61.88007061670246
2,1, 1, 1, 0, 9, 0.00,60.00,Sunday
8,10.441457316633729
9,61.51348961069308
2,1, 1, 1, 0,10, 0.00,60.00,Sunday
8,11.687906325761254
9,56.652554726797696
2,1, 1, 1, 0,11, 0.00,60.00,Sunday
8,13.232892311043928
9,51.17679203042736
2,1, 1, 1, 0,12, 0.00,60.00,Sunday
8,14.640484132623216
9,46.70313083200046
2,1, 1, 1, 0,13, 0.00,60.00,Sunday
8,15.995807756958255
9,42.805903914766965
2,1, 1, 1, 0,14, 0.00,60.00,Sunday
8,16.540933497556953
9,41.3316339466037
2,1, 1, 1, 0,15, 0.00,60.00,Sunday
8,16.73243575303076
9,40.83439611510159
2,1, 1, 1, 0,16, 0.00,60.00,Sunday
8,18.130879675595125
9,37.39773826349928
2,1, 1, 1, 0,17, 0.00,60.00,Sunday
8,18.2981004628404
9,36.99209433131904
2,1, 1, 1, 0,18, 0.00,60.00,Sunday
8,17.034190116859037
9,40.069864767459165
2,1, 1, 1, 0,19, 0.00,60.00,Sunday
8,16.10176608193365
9,42.50932980268623
2,1, 1, 1, 0,20, 0.00,60.00,Sunday
8,15.40050635793781
9,44.460571085977286
2,1, 1, 1, 0,21, 0.00,60.00,Sunday
8,14.760021880989157
9,46.33099117142444
2,1, 1, 1, 0,22, 0.00,60.00,Sunday
8,14.167026339728134
9,48.14212389561711
2,1, 1, 1, 0,23, 0.00,60.00,Sunday
8,13.606305026572644
9,49.927811901545454
2,1, 1, 1, 0,24, 0.00,60.00,Sunday
8,13.114203115849902
9,51.55572578839847
2,2, 1, 2, 0, 1, 0.00,60.00,Monday
8,12.672216889746023
9,52.96058893017039
2,2, 1, 2, 0, 2, 0.00,60.00,Monday
8,12.222817899795627
9,54.4679633213129
2,2, 1, 2, 0, 3, 0.00,60.00,Monday
8,11.807145740419323
9,55.98109078064999
2,2, 1, 2, 0, 4, 0.00,60.00,Monday
8,11.404832978397804
9,57.49115277962059
2,2, 1, 2, 0, 5, 0.00,60.00,Monday
8,10.99579522956462
9,59.07290720139455
2,2, 1, 2, 0, 6, 0.00,60.00,Monday
8,10.592625010156242
9,60.68020646047446
2,2, 1, 2, 0, 7, 0.00,60.00,Monday
8,10.177851145464382
9,62.384741053900484
2,2, 1, 2, 0, 8, 0.00,60.00,Monday
8,10.036412525865108
9,62.97808243234348
2,2, 1, 2, 0, 9, 0.00,60.00,Monday
8,11.120821802177325
9,58.609765732060076
2,2, 1, 2, 0,10, 0.00,60.00,Monday
8,12.410607641860118
9,53.81262452917981
2,2, 1, 2, 0,11, 0.00,60.00,Monday
8,13.70130668840355
9,49.45664962636704
2,2, 1, 2, 0,12, 0.00,60.00,Monday
8,14.400978505685517
9,47.2524960275211
2,2, 1, 2, 0,13, 0.00,60.00,Monday
8,15.960736569718208
9,42.78029913785979
2,2, 1, 2, 0,14, 0.00,60.00,Monday
8,18.346450563868274
9,36.78578844105783
2,2, 1, 2, 0,15, 0.00,60.00,Monday
8,20.35375585372385
9,32.44042439551433
2,2, 1, 2, 0,16, 0.00,60.00,Monday
8,20.482524921670432
9,32.17683768347379
2,2, 1, 2, 0,17, 0.00,60.00,Monday
8,19.554109760330544
9,34.08188673407333
2,2, 1, 2, 0,18, 0.00,60.00,Monday
8,18.573135868717248
9,36.2318342319417
2,2, 1, 2, 0,19, 0.00,60.00,Monday
8,17.899331583033536
9,37.795596792483316
2,2, 1, 2, 0,20, 0.00,60.00,Monday
8,17.327686340232244
9,39.18320551133413
2,2, 1, 2, 0,21, 0.00,60.00,Monday
8,16.792670532767445
9,40.53477754563239
2,2, 1, 2, 0,22, 0.00,60.00,Monday
8,16.234575421865404
9,42.00048544458969
2,2, 1, 2, 0,23, 0.00,60.00,Monday
8,15.681052839153738
9,43.51299972401744
2,2, 1, 2, 0,24, 0.00,60.00,Monday
8,15.155600483718345
9,45.00539778424005
2,3, 1, 3, 0, 1, 0.00,60.00,Tuesday
8,14.653462802440307
9,46.66997908329326
2,3, 1, 3, 0, 2, 0.00,60.00,Tuesday
8,14.15170763210151
9,48.344452060009566
2,3, 1, 3, 0, 3, 0.00,60.00,Tuesday
8,13.674591150780033
9,49.865705770617524
2,3, 1, 3, 0, 4, 0.00,60.00,Tuesday
8,13.224697323735251
9,51.34999684880484
2,3, 1, 3, 0, 5, 0.00,60.00,Tuesday
8,12.77214815608697
9,52.89308963251501
2,3, 1, 3, 0, 6, 0.00,60.00,Tuesday
8,12.342165876015466
9,54.407044360194156
2,3, 1, 3, 0, 7, 0.00,60.00,Tuesday
8,11.950869878715537
9,55.82735379754099
2,3, 1, 3, 0, 8, 0.00,60.00,Tuesday
8,11.788661317980187
9,56.426762961579904
2,3, 1, 3, 0, 9, 0.00,60.00,Tuesday
8,11.985748883651665
9,55.70471465693893
2,3, 1, 3, 0,10, 0.00,60.00,Tuesday
8,13.81319998663323
9,49.4632987965989
2,3, 1, 3, 0,11, 0.00,60.00,Tuesday
8,14.752129910990599
9,46.5047051965245
2,3, 1, 3, 0,12, 0.00,60.00,Tuesday
8,16.6955339692153
9,41.105072804311725
2,3, 1, 3, 0,13, 0.00,60.00,Tuesday
8,17.660750900434962
9,38.625053648699726
2,3, 1, 3, 0,14, 0.00,60.00,Tuesday
8,17.97906143070661
9,37.86355973382211
2,3, 1, 3, 0,15, 0.00,60.00,Tuesday
8,19.901570996154952
9,33.60451201260664
2,3, 1, 3, 0,16, 0.00,60.00,Tuesday
8,20.00284630980639
9,33.37737575137199
2,3, 1, 3, 0,17, 0.00,60.00,Tuesday
8,18.790788075502135
9,35.98475668878033
2,3, 1, 3, 0,18, 0.00,60.00,Tuesday
8,17.52656321097108
9,38.96471950059979
2,3, 1, 3, 0,19, 0.00,60.00,Tuesday
8,16.477012199951307
9,41.64038055916658
2,3, 1, 3, 0,20, 0.00,60.00,Tuesday
8,15.611009814397924
9,44.007299011488676
2,3, 1, 3, 0,21, 0.00,60.00,Tuesday
8,14.861028889421677
9,46.17932283351803
2,3, 1, 3, 0,22, 0.00,60.00,Tuesday
8,14.207021512217686
9,48.17284336766581
2,3, 1, 3, 0,23, 0.00,60.00,Tuesday
8,13.59879667421877
9,50.11368806404986
2,3, 1, 3, 0,24, 0.00,60.00,Tuesday
8,13.023615049156911
9,52.030576100195184
2,4, 1, 4, 0, 1, 0.00,60.00,Wednesday
8,12.466427681330172
9,53.83956009194967
2,4, 1, 4, 0, 2, 0.00,60.00,Wednesday
8,11.955631515007257
9,55.58804765282566
2,4, 1, 4, 0, 3, 0.00,60.00,Wednesday
8,11.481073210590312
9,57.35910922765251
2,4, 1, 4, 0, 4, 0.00,60.00,Wednesday
8,11.021591035881727
9,59.13400077238608
2,4, 1, 4, 0, 5, 0.00,60.00,Wednesday
8,10.601850585263973
9,60.809058376692256
2,4, 1, 4, 0, 6, 0.00,60.00,Wednesday
8,10.217490214569443
9,62.39002431635482
2,4, 1, 4, 0, 7, 0.00,60.00,Wednesday
8,9.857367768990022
9,63.91274425013791
2,4, 1, 4, 0, 8, 0.00,60.00,Wednesday
8,9.740963138674879
9,64.41429404291054
2,4, 1, 4, 0, 9, 0.00,60.00,Wednesday
8,10.796070099745505
9,60.050141945762505
2,4, 1, 4, 0,10, 0.00,60.00,Wednesday
8,11.789161209950274
9,56.2106613963824
2,4, 1, 4, 0,11, 0.00,60.00,Wednesday
8,13.545226720712177
9,50.12278673628649
2,4, 1, 4, 0,12, 0.00,60.00,Wednesday
8,14.605317709898415
9,46.76240364104594
2,4, 1, 4, 0,13, 0.00,60.00,Wednesday
8,16.333217174188295
9,41.89597126907623
2,4, 1, 4, 0,14, 0.00,60.00,Wednesday
8,18.540419086333657
9,36.42878076545219
2,4, 1, 4, 0,15, 0.00,60.00,Wednesday
8,20.40052444746231
9,32.43900621027827
2,4, 1, 4, 0,16, 0.00,60.00,Wednesday
8,21.525615255799107
9,30.25877598097699
2,4, 1, 4, 0,17, 0.00,60.00,Wednesday
8,20.802754539298373
9,31.648669494538478
2,4, 1, 4, 0,18, 0.00,60.00,Wednesday
8,19.30515009241144
9,34.70976997356207
2,4, 1, 4, 0,19, 0.00,60.00,Wednesday
8,18.462570251158137
9,36.58313727064269
2,4, 1, 4, 0,20, 0.00,60.00,Wednesday
8,17.76144332776911
9,38.23008110502849
2,4, 1, 4, 0,21, 0.00,60.00,Wednesday
8,17.130437887756504
9,39.785434443793854
2,4, 1, 4, 0,22, 0.00,60.00,Wednesday
8,16.51304623842555
9,41.375071997111526
2,4, 1, 4, 0,23, 0.00,60.00,Wednesday
8,15.973501614953515
9,42.82333766437642
2,4, 1, 4, 0,24, 0.00,60.00,Wednesday
8,15.472069916050607
9,44.22043094405006
2,5, 1, 5, 0, 1, 0.00,60.00,Thursday
8,15.023317815912378
9,45.35776780116192
2,5, 1, 5, 0, 2, 0.00,60.00,Thursday
8,14.615075325344426
9,46.45429094062803
2,5, 1, 5, 0, 3, 0.00,60.00,Thursday
8,14.235879692998433
9,47.60747580513628
2,5, 1, 5, 0, 4, 0.00,60.00,Thursday
8,13.891112086993134
9,48.68454699953755
2,5, 1, 5, 0, 5, 0.00,60.00,Thursday
8,13.536253394785911
9,49.82140758643379
2,5, 1, 5, 0, 6, 0.00,60.00,Thursday
8,13.214387084556252
9,50.8782019423462
2,5, 1, 5, 0, 7, 0.00,60.00,Thursday
8,12.918251826628634
9,51.87304673011022
2,5, 1, 5, 0, 8, 0.00,60.00,Thursday
8,12.862794588567473
9,52.06202499286581
2,5, 1, 5, 0, 9, 0.00,60.00,Thursday
8,13.74754567049451
9,49.157866688657585
2,5, 1, 5, 0,10, 0.00,60.00,Thursday
8,15.49361631216425
9,43.93454573024664
2,5, 1, 5, 0,11, 0.00,60.00,Thursday
8,17.371925285984116
9,38.96870080073516
2,5, 1, 5, 0,12, 0.00,60.00,Thursday
8,18.637755517304665
9,35.97374136443951
2,5, 1, 5, 0,13, 0.00,60.00,Thursday
8,19.21516444076912
9,34.69522557669871
2,5, 1, 5, 0,14, 0.00,60.00,Thursday
8,20.59027720029246
9,31.884594831719742
2,5, 1, 5, 0,15, 0.00,60.00,Thursday
8,22.517444958018462
9,28.327978524713146
2,5, 1, 5, 0,16, 0.00,60.00,Thursday
8,23.89155190872064
9,26.061100293419997
2,5, 1, 5, 0,17, 0.00,60.00,Thursday
8,23.46955325071318
9,26.736831380565476
2,5, 1, 5, 0,18, 0.00,60.00,Thursday
8,22.0187563330943
9,29.197502023413918
2,5, 1, 5, 0,19, 0.00,60.00,Thursday
8,20.899247229512888
9,31.262278174866903
2,5, 1, 5, 0,20, 0.00,60.00,Thursday
8,20.111804271614627
9,32.81786680833756
2,5, 1, 5, 0,21, 0.00,60.00,Thursday
8,19.410540472781182
9,34.27671522792698
2,5, 1, 5, 0,22, 0.00,60.00,Thursday
8,18.81889896645062
9,35.564430509900575
2,5, 1, 5, 0,23, 0.00,60.00,Thursday
8,18.291299061946045
9,36.75941506650762
2,5, 1, 5, 0,24, 0.00,60.00,Thursday
8,17.75581156268269
9,38.018812575955465
2,6, 1, 6, 0, 1, 0.00,60.00,Friday
8,17.186744640194313
9,39.533459553013785
2,6, 1, 6, 0, 2, 0.00,60.00,Friday
8,16.59692914641762
9,41.1308572087446
2,6, 1, 6, 0, 3, 0.00,60.00,Friday
8,16.025137436896376
9,42.65759348583693
2,6, 1, 6, 0, 4, 0.00,60.00,Friday
8,15.484179141852366
9,44.16043249632248
2,6, 1, 6, 0, 5, 0.00,60.00,Friday
8,14.976449355564775
9,45.625609561226945
2,6, 1, 6, 0, 6, 0.00,60.00,Friday
8,14.488437160233543
9,47.085097708065405
2,6, 1, 6, 0, 7, 0.00,60.00,Friday
8,14.03061011163947
9,48.50238585151133
2,6, 1, 6, 0, 8, 0.00,60.00,Friday
8,13.640472724263661
9,49.746825799227146
2,6, 1, 6, 0, 9, 0.00,60.00,Friday
8,13.461837148857766
9,50.32831475009314
2,6, 1, 6, 0,10, 0.00,60.00,Friday
8,13.459913551733601
9,50.334604979477454
2,6, 1, 6, 0,11, 0.00,60.00,Friday
8,13.607330119665976
9,49.8539101276015
2,6, 1, 6, 0,12, 0.00,60.00,Friday
8,13.844146127341803
9,49.09188283249464
2,6, 1, 6, 0,13, 0.00,60.00,Friday
8,14.075614150214719
9,48.35950290105759
2,6, 1, 6, 0,14, 0.00,60.00,Friday
8,14.274799036443405
9,47.738953149510905
2,6, 1, 6, 0,15, 0.00,60.00,Friday
8,14.36656974383643
9,47.4558524848417
2,6, 1, 6, 0,16, 0.00,60.00,Friday
8,14.300353578311245
9,47.65981658493877
2,6, 1, 6, 0,17, 0.00,60.00,Friday
8,14.087698811847366
9,48.32214642317465
2,6, 1, 6, 0,18, 0.00,60.00,Friday
8,13.683361571385996
9,49.60891294006643
2,6, 1, 6, 0,19, 0.00,60.00,Friday
8,13.319837262833516
9,50.797918381956265
2,6, 1, 6, 0,20, 0.00,60.00,Friday
8,12.98018545704844
9,51.93738611828647
2,6, 1, 6, 0,21, 0.00,60.00,Friday
8,12.702284587149999
9,52.89150025675818
2,6, 1, 6, 0,22, 0.00,60.00,Friday
8,12.411043811915889
9,53.91276865620976
2,6, 1, 6, 0,23, 0.00,60.00,Friday
8,12.094188488417908
9,55.0488877506684
2,6, 1, 6, 0,24, 0.00,60.00,Friday
8,11.815916304181691
9,56.06808261843873
2,7, 1, 7, 0, 1, 0.00,60.00,Saturday
8,11.573505765506601
9,56.9807487904456
2,7, 1, 7, 0, 2, 0.00,60.00,Saturday
8,11.274799927677334
9,58.1242760536475
2,7, 1, 7, 0, 3, 0.00,60.00,Saturday
8,10.974047918824597
9,59.296688418815876
2,7, 1, 7, 0, 4, 0.00,60.00,Saturday
8,10.695677324288368
9,60.40522350658932
2,7, 1, 7, 0, 5, 0.00,60.00,Saturday
8,10.454325347529275
9,61.385318016895326
2,7, 1, 7, 0, 6, 0.00,60.00,Saturday
8,10.188085882144222
9,62.48784287216063
2,7, 1, 7, 0, 7, 0.00,60.00,Saturday
8,9.917426062337055
9,63.63005419037372
2,7, 1, 7, 0, 8, 0.00,60.00,Saturday
8,9.827198431656951
9,64.01593575503362
2,7, 1, 7, 0, 9, 0.00,60.00,Saturday
8,10.165594525674956
9,62.58296972134733
2,7, 1, 7, 0,10, 0.00,60.00,Saturday
8,10.359463166510405
9,61.775025910491614
2,7, 1, 7, 0,11, 0.00,60.00,Saturday
8,10.67291221990025
9,60.498437277865854
2,7, 1, 7, 0,12, 0.00,60.00,Saturday
8,11.20979512639496
9,58.38118408320747
2,7, 1, 7, 0,13, 0.00,60.00,Saturday
8,12.4455621911194
9,53.82499862787339
2,7, 1, 7, 0,14, 0.00,60.00,Saturday
8,13.812420444886223
9,49.2175303458092
2,7, 1, 7, 0,15, 0.00,60.00,Saturday
8,14.960011414803768
9,45.68931288119953
2,7, 1, 7, 0,16, 0.00,60.00,Saturday
8,15.833301447725562
9,43.19322295395805
2,7, 1, 7, 0,17, 0.00,60.00,Saturday
8,15.65474900610115
9,43.69160972064776
2,7, 1, 7, 0,18, 0.00,60.00,Saturday
8,14.97147545501912
9,45.650003327264336
2,7, 1, 7, 0,19, 0.00,60.00,Saturday
8,14.483731106096242
9,47.10829111976644
2,7, 1, 7, 0,20, 0.00,60.00,Saturday
8,14.070363718963852
9,48.38653798763201
2,7, 1, 7, 0,21, 0.00,60.00,Saturday
8,13.689319921247877
9,49.59889691506775
2,7, 1, 7, 0,22, 0.00,60.00,Saturday
8,13.37671343198659
9,50.61901937661613
2,7, 1, 7, 0,23, 0.00,60.00,Saturday
8,13.106943971199454
9,51.51862878610481
2,7, 1, 7, 0,24, 0.00,60.00,Saturday
8,12.822267383593259
9,52.48752010908455
2,8, 1, 8, 0, 1, 0.00,60.00,Sunday
8,12.518887039535898
9,53.91924841448948
2,8, 1, 8, 0, 2, 0.00,60.00,Sunday
8,12.183748481199354
9,55.39436479885012
2,8, 1, 8, 0, 3, 0.00,60.00,Sunday
8,11.849273306364665
9,56.628956788062006
2,8, 1, 8, 0, 4, 0.00,60.00,Sunday
8,11.545572077801173
9,57.77772883751928
2,8, 1, 8, 0, 5, 0.00,60.00,Sunday
8,11.210385792174497
9,59.07530646460078
2,8, 1, 8, 0, 6, 0.00,60.00,Sunday
8,10.87234889373333
9,60.41758634653809
2,8, 1, 8, 0, 7, 0.00,60.00,Sunday
8,10.509910393919323
9,61.89433805362887
2,8, 1, 8, 0, 8, 0.00,60.00,Sunday
8,10.301004994675596
9,62.76248073181649
2,8, 1, 8, 0, 9, 0.00,60.00,Sunday
8,10.69028558993132
9,61.158080663497195
2,8, 1, 8, 0,10, 0.00,60.00,Sunday
8,11.450811219385784
9,58.1484733353802
2,8, 1, 8, 0,11, 0.00,60.00,Sunday
8,12.301032592190424
9,54.97433954973976
2,8, 1, 8, 0,12, 0.00,60.00,Sunday
8,13.090367004951757
9,52.19982636014086
2,8, 1, 8, 0,13, 0.00,60.00,Sunday
8,13.864707033335977
9,49.631523607419126
2,8, 1, 8, 0,14, 0.00,60.00,Sunday
8,14.63895994322715
9,47.20047426759036
2,8, 1, 8, 0,15, 0.00,60.00,Sunday
8,14.361894223613255
9,48.05768364153196
2,8, 1, 8, 0,16, 0.00,60.00,Sunday
8,13.668594321403125
9,50.26526797075388
2,8, 1, 8, 0,17, 0.00,60.00,Sunday
8,13.091134199325325
9,52.1944796175965
2,8, 1, 8, 0,18, 0.00,60.00,Sunday
8,12.292615330834934
9,55.00638618103452
2,8, 1, 8, 0,19, 0.00,60.00,Sunday
8,11.538465975523623
9,57.80897329999342
2,8, 1, 8, 0,20, 0.00,60.00,Sunday
8,10.885678248872459
9,60.36707244641544
2,8, 1, 8, 0,21, 0.00,60.00,Sunday
8,10.309113281991237
9,62.731853260614805
2,8, 1, 8, 0,22, 0.00,60.00,Sunday
8,9.816994479436586
9,64.8327284214618
2,8, 1, 8, 0,23, 0.00,60.00,Sunday
8,9.363840679414857
9,66.83802623420193
2,8, 1, 8, 0,24, 0.00,60.00,Sunday
8,8.9312946878934
9,68.8161437785466
2,9, 1, 9, 0, 1, 0.00,60.00,Monday
8,8.543253914756795
9,70.51133755562033
2,9, 1, 9, 0, 2, 0.00,60.00,Monday
8,8.172164063344958
9,72.21120508800797
2,9, 1, 9, 0, 3, 0.00,60.00,Monday
8,7.824283804710571
9,73.94163084422159
2,9, 1, 9, 0, 4, 0.00,60.00,Monday
8,7.487291846025973
9,75.66241684810514
2,9, 1, 9, 0, 5, 0.00,60.00,Monday
8,7.13037299252763
9,77.53434365156205
2,9, 1, 9, 0, 6, 0.00,60.00,Monday
8,6.778903120394795
9,79.42718745209893
2,9, 1, 9, 0, 7, 0.00,60.00,Monday
8,6.474182312401322
9,81.11050559620723
2,9, 1, 9, 0, 8, 0.00,60.00,Monday
8,6.526156253888079
9,80.82800520932511
2,9, 1, 9, 0, 9, 0.00,60.00,Monday
8,8.142123871388268
9,72.42564348530719
2,9, 1, 9, 0,10, 0.00,60.00,Monday
8,9.568128958293888
9,65.72878156858393
2,9, 1, 9, 0,11, 0.00,60.00,Monday
8,11.677370424536411
9,57.15082538314877
2,9, 1, 9, 0,12, 0.00,60.00,Monday
8,12.990513226798614
9,52.36686210885507
2,9, 1, 9, 0,13, 0.00,60.00,Monday
8,13.26836554081283
9,51.42115110933224
2,9, 1, 9, 0,14, 0.00,60.00,Monday
8,13.524440478485667
9,50.57030681079075
2,9, 1, 9, 0,15, 0.00,60.00,Monday
8,13.713026740818684
9,49.95231997707614
2,9, 1, 9, 0,16, 0.00,60.00,Monday
8,13.631643318817098
9,50.21808243312603
2,9, 1, 9, 0,17, 0.00,60.00,Monday
8,13.127051241473092
9,51.90306268131578
2,9, 1, 9, 0,18, 0.00,60.00,Monday
8,12.294978623389722
9,54.81636025375116
2,9, 1, 9, 0,19, 0.00,60.00,Monday
8,11.591338250645348
9,57.41672480748604
2,9, 1, 9, 0,20, 0.00,60.00,Monday
8,10.997483286578998
9,59.72257559298601
2,9, 1, 9, 0,21, 0.00,60.00,Monday
8,10.42493413200569
9,62.04442482956953
2,9, 1, 9, 0,22, 0.00,60.00,Monday
8,9.862798212906522
9,64.42290524130318
2,9, 1, 9, 0,23, 0.00,60.00,Monday
8,9.320725333563878
9,66.81294285672449
2,9, 1, 9, 0,24, 0.00,60.00,Monday
8,8.803157874177337
9,69.18854737967251
2,10, 1,10, 0, 1, 0.00,60.00,Tuesday
8,8.29917308487843
9,71.42553185755399
2,10, 1,10, 0, 2, 0.00,60.00,Tuesday
8,7.8362888378301365
9,73.58876654701673
2,10, 1,10, 0, 3, 0.00,60.00,Tuesday
8,7.401365740185369
9,75.80700422277171
2,10, 1,10, 0, 4, 0.00,60.00,Tuesday
8,6.986388270288543
9,77.99296289001293
2,10, 1,10, 0, 5, 0.00,60.00,Tuesday
8,6.609066031147191
9,80.04182799230034
2,10, 1,10, 0, 6, 0.00,60.00,Tuesday
8,6.268370984561503
9,81.94359786675614
2,10, 1,10, 0, 7, 0.00,60.00,Tuesday
8,5.9384819299105525
9,83.83376839833844
2,10, 1,10, 0, 8, 0.00,60.00,Tuesday
8,5.952436733280002
9,83.75573776881087
2,10, 1,10, 0, 9, 0.00,60.00,Tuesday
8,7.133659317560853
9,77.25185047675433
2,10, 1,10, 0,10, 0.00,60.00,Tuesday
8,8.661355855441059
9,69.59588516129116
2,10, 1,10, 0,11, 0.00,60.00,Tuesday
8,9.344424086084965
9,66.44494568068562
2,10, 1,10, 0,12, 0.00,60.00,Tuesday
8,10.959114584117424
9,59.689283111565125
2,10, 1,10, 0,13, 0.00,60.00,Tuesday
8,12.912989846890227
9,52.45902578472428
2,10, 1,10, 0,14, 0.00,60.00,Tuesday
8,14.823254739717633
9,46.333857586896016
2,10, 1,10, 0,15, 0.00,60.00,Tuesday
8,16.718911525373272
9,41.03378347500169
2,10, 1,10, 0,16, 0.00,60.00,Tuesday
8,17.82023725725932
9,38.251096157337265
2,10, 1,10, 0,17, 0.00,60.00,Tuesday
8,16.870332757342965
9,40.64713672760435
2,10, 1,10, 0,18, 0.00,60.00,Tuesday
8,15.376958075449494
9,44.69019636577281
2,10, 1,10, 0,19, 0.00,60.00,Tuesday
8,14.464023758291708
9,47.3943076396529
2,10, 1,10, 0,20, 0.00,60.00,Tuesday
8,13.701846798231285
9,49.79454697868547
2,10, 1,10, 0,21, 0.00,60.00,Tuesday
8,13.023537885698559
9,52.04728847142983
2,10, 1,10, 0,22, 0.00,60.00,Tuesday
8,12.387727314441747
9,54.262159823340994
2,10, 1,10, 0,23, 0.00,60.00,Tuesday
8,11.813076894640846
9,56.35582883080931
2,10, 1,10, 0,24, 0.00,60.00,Tuesday
8,11.267284777324512
9,58.42836542513501
2,11, 1,11, 0, 1, 0.00,60.00,Wednesday
8,10.77813093463731
9,60.34414625437006
2,11, 1,11, 0, 2, 0.00,60.00,Wednesday
8,10.333073997802385
9,62.15267230963599
2,11, 1,11, 0, 3, 0.00,60.00,Wednesday
8,9.892116166279298
9,64.0140623069625
2,11, 1,11, 0, 4, 0.00,60.00,Wednesday
8,9.478165749836206
9,65.81894439952971
2,11, 1,11, 0, 5, 0.00,60.00,Wednesday
8,9.030812554366547
9,67.83450819702891
2,11, 1,11, 0, 6, 0.00,60.00,Wednesday
8,8.5689116024009
9,69.98670583287215
2,11, 1,11, 0, 7, 0.00,60.00,Wednesday
8,8.155049788943183
9,71.98023192682547
2,11, 1,11, 0, 8, 0.00,60.00,Wednesday
8,8.029039941697688
9,72.59773285164306
2,11, 1,11, 0, 9, 0.00,60.00,Wednesday
8,8.254227382542707
9,71.50329558715121
2,11, 1,11, 0,10, 0.00,60.00,Wednesday
8,9.888353338653069
9,64.09245705663714
2,11, 1,11, 0,11, 0.00,60.00,Wednesday
8,11.801600507849818
9,56.40598829404212
2,11, 1,11, 0,12, 0.00,60.00,Wednesday
8,13.428388204152341
9,50.689085561219976
2,11, 1,11, 0,13, 0.00,60.00,Wednesday
8,14.99219350908547
9,45.80525235937224
2,11, 1,11, 0,14, 0.00,60.00,Wednesday
8,16.66194300468432
9,41.16437528693603
2,11, 1,11, 0,15, 0.00,60.00,Wednesday
8,18.46688729094939
9,36.73543850141741
2,11, 1,11, 0,16, 0.00,60.00,Wednesday
8,19.582686367240363
9,34.24359851518287
2,11, 1,11, 0,17, 0.00,60.00,Wednesday
8,18.69752120970656
9,36.2084313082457
2,11, 1,11, 0,18, 0.00,60.00,Wednesday
8,17.20348417354573
9,39.762777237770386
2,11, 1,11, 0,19, 0.00,60.00,Wednesday
8,16.29348329356793
9,42.123837992706065
2,11, 1,11, 0,20, 0.00,60.00,Wednesday
8,15.559482329951194
9,44.147661055573515
2,11, 1,11, 0,21, 0.00,60.00,Wednesday
8,14.844707370886226
9,46.22358920826675
2,11, 1,11, 0,22, 0.00,60.00,Wednesday
8,14.176707397575747
9,48.26289877615241
2,11, 1,11, 0,23, 0.00,60.00,Wednesday
8,13.563651852917268
9,50.22367895432436
2,11, 1,11, 0,24, 0.00,60.00,Wednesday
8,13.002272628223762
9,52.097751130937866
2,12, 1,12, 0, 1, 0.00,60.00,Thursday
8,12.506397807509535
9,53.83660037274953
2,12, 1,12, 0, 2, 0.00,60.00,Thursday
8,12.069286448816605
9,55.420559491011915
2,12, 1,12, 0, 3, 0.00,60.00,Thursday
8,11.661139855299227
9,56.93370522202474
2,12, 1,12, 0, 4, 0.00,60.00,Thursday
8,11.297278113025163
9,58.321671505023524
2,12, 1,12, 0, 5, 0.00,60.00,Thursday
8,10.967436285518376
9,59.6129939177109
2,12, 1,12, 0, 6, 0.00,60.00,Thursday
8,10.666690752494103
9,60.817997922644906
2,12, 1,12, 0, 7, 0.00,60.00,Thursday
8,10.414989098865927
9,61.84762164285819
2,12, 1,12, 0, 8, 0.00,60.00,Thursday
8,10.235893453849245
9,62.591724875718576
2,12, 1,12, 0, 9, 0.00,60.00,Thursday
8,10.257406968644956
9,62.5018147249767
2,12, 1,12, 0,10, 0.00,60.00,Thursday
8,10.520830945178812
9,61.41359085344561
2,12, 1,12, 0,11, 0.00,60.00,Thursday
8,10.981831534012443
9,59.55758058060843
2,12, 1,12, 0,12, 0.00,60.00,Thursday
8,11.49041557556753
9,57.58178592878627
2,12, 1,12, 0,13, 0.00,60.00,Thursday
8,11.967867156173439
9,55.79245953452092
2,12, 1,12, 0,14, 0.00,60.00,Thursday
8,12.352552600820486
9,54.395914112178644
2,12, 1,12, 0,15, 0.00,60.00,Thursday
8,12.562125694773743
9,53.65082263089368
2,12, 1,12, 0,16, 0.00,60.00,Thursday
8,12.521714670986919
9,53.79346610095424
2,12, 1,12, 0,17, 0.00,60.00,Thursday
8,12.318908443374049
9,54.51595987621119
2,12, 1,12, 0,18, 0.00,60.00,Thursday
8,11.94978528417306
9,55.858700823207045
2,12, 1,12, 0,19, 0.00,60.00,Thursday
8,11.64867294722729
9,56.97962902472775
2,12, 1,12, 0,20, 0.00,60.00,Thursday
8,11.402042937559612
9,57.91755947297375
2,12, 1,12, 0,21, 0.00,60.00,Thursday
8,11.174252923052974
9,58.79868917763238
2,12, 1,12, 0,22, 0.00,60.00,Thursday
8,10.989647842868331
9,59.524236009173364
2,12, 1,12, 0,23, 0.00,60.00,Thursday
8,10.7931298454412
9,60.30749031391769
2,12, 1,12, 0,24, 0.00,60.00,Thursday
8,10.608532481682735
9,61.05372944584716
2,13, 1,13, 0, 1, 0.00,60.00,Friday
8,10.423358146007365
9,61.63713646541263
2,13, 1,13, 0, 2, 0.00,60.00,Friday
8,10.249328026652389
9,62.231394231844455
2,13, 1,13, 0, 3, 0.00,60.00,Friday
8,10.124425013427421
9,62.75348381332453
2,13, 1,13, 0, 4, 0.00,60.00,Friday
8,9.996740299142603
9,63.292535345140266
2,13, 1,13, 0, 5, 0.00,60.00,Friday
8,9.853000355001248
9,63.90523973937076
2,13, 1,13, 0, 6, 0.00,60.00,Friday
8,9.738990821069535
9,64.39600981917654
2,13, 1,13, 0, 7, 0.00,60.00,Friday
8,9.65151996964312
9,64.7753348647202
2,13, 1,13, 0, 8, 0.00,60.00,Friday
8,9.607024980400935
9,64.96925562687036
2,13, 1,13, 0, 9, 0.00,60.00,Friday
8,9.618730932162068
9,64.91817801002479
2,13, 1,13, 0,10, 0.00,60.00,Friday
8,9.670004848574989
9,64.69492813574168
2,13, 1,13, 0,11, 0.00,60.00,Friday
8,9.76725553321319
9,64.27411126617123
2,13, 1,13, 0,12, 0.00,60.00,Friday
8,9.928524070444267
9,63.58255418246955
2,13, 1,13, 0,13, 0.00,60.00,Friday
8,10.063347029705847
9,63.01058036136728
2,13, 1,13, 0,14, 0.00,60.00,Friday
8,10.171942769174679
9,62.554329918208765
2,13, 1,13, 0,15, 0.00,60.00,Friday
8,10.270041157424528
9,62.14506007777947
2,13, 1,13, 0,16, 0.00,60.00,Friday
8,10.301160594061008
9,62.015888038529056
2,13, 1,13, 0,17, 0.00,60.00,Friday
8,10.276551894900118
9,62.118050870514764
2,13, 1,13, 0,18, 0.00,60.00,Friday
8,10.211380879470408
9,62.38928861526927
2,13, 1,13, 0,19, 0.00,60.00,Friday
8,10.171113265110945
9,62.55764826804242
2,13, 1,13, 0,20, 0.00,60.00,Friday
8,10.108895926897775
9,62.81860685679865
2,13, 1,13, 0,21, 0.00,60.00,Friday
8,10.080555666070836
9,62.937899392264576
2,13, 1,13, 0,22, 0.00,60.00,Friday
8,10.053952172203738
9,63.05013081250892
2,13, 1,13, 0,23, 0.00,60.00,Friday
8,10.017516573555474
9,63.20419000847016
2,13, 1,13, 0,24, 0.00,60.00,Friday
8,9.988166600441309
9,63.328581459672726
2,14, 1,14, 0, 1, 0.00,60.00,Saturday
8,9.946561991648082
9,63.440235184294686
2,14, 1,14, 0, 2, 0.00,60.00,Saturday
8,9.84838156694029
9,63.81254001049839
2,14, 1,14, 0, 3, 0.00,60.00,Saturday
8,9.74987216727711
9,64.2356418577617
2,14, 1,14, 0, 4, 0.00,60.00,Saturday
8,9.697592968499057
9,64.46149440540862
2,14, 1,14, 0, 5, 0.00,60.00,Saturday
8,9.659330453745952
9,64.62740418486244
2,14, 1,14, 0, 6, 0.00,60.00,Saturday
8,9.60564865317423
9,64.86094255361381
2,14, 1,14, 0, 7, 0.00,60.00,Saturday
8,9.562703467041386
9,65.04843062138262
2,14, 1,14, 0, 8, 0.00,60.00,Saturday
8,9.533397257870561
9,65.17674355331299
2,14, 1,14, 0, 9, 0.00,60.00,Saturday
8,9.543280923254583
9,65.13344645008192
2,14, 1,14, 0,10, 0.00,60.00,Saturday
8,9.656401885187728
9,64.64064689787394
2,14, 1,14, 0,11, 0.00,60.00,Saturday
8,9.874850177669195
9,63.699751718886695
2,14, 1,14, 0,12, 0.00,60.00,Saturday
8,10.092069223905034
9,62.77932882303349
2,14, 1,14, 0,13, 0.00,60.00,Saturday
8,10.305669433238384
9,61.888656651498536
2,14, 1,14, 0,14, 0.00,60.00,Saturday
8,10.479526780304377
9,61.17382475466965
2,14, 1,14, 0,15, 0.00,60.00,Saturday
8,10.541577004429419
9,60.92085244074541
2,14, 1,14, 0,16, 0.00,60.00,Saturday
8,10.476012867140035
9,61.18810267513276
2,14, 1,14, 0,17, 0.00,60.00,Saturday
8,10.316747571682546
9,61.84282085999569
2,14, 1,14, 0,18, 0.00,60.00,Saturday
8,10.050094874531995
9,62.95658283196111
2,14, 1,14, 0,19, 0.00,60.00,Saturday
8,9.801299185165744
9,64.01475280644274
2,14, 1,14, 0,20, 0.00,60.00,Saturday
8,9.616847190253155
9,64.81251256759079
2,14, 1,14, 0,21, 0.00,60.00,Saturday
8,9.440763269444764
9,65.58462884662252
2,14, 1,14, 0,22, 0.00,60.00,Saturday
8,9.27048649295746
9,66.34085835520436
2,14, 1,14, 0,23, 0.00,60.00,Saturday
8,9.1275004774955
9,66.98351769565683
2,14, 1,14, 0,24, 0.00,60.00,Saturday
8,8.976160073987826
9,67.67154891419271
2,15, 1,15, 0, 1, 0.00,60.00,Sunday
8,8.81032381197278
9,68.48905937011853
2,15, 1,15, 0, 2, 0.00,60.00,Sunday
8,8.680611948099369
9,69.13210999861336
2,15, 1,15, 0, 3, 0.00,60.00,Sunday
8,8.568240685424911
9,69.66043640022316
2,15, 1,15, 0, 4, 0.00,60.00,Sunday
8,8.454653461533743
9,70.19884311199922
2,15, 1,15, 0, 5, 0.00,60.00,Sunday
8,8.359298988290734
9,70.65458162648207
2,15, 1,15, 0, 6, 0.00,60.00,Sunday
8,8.253483892267596
9,71.16413297310363
2,15, 1,15, 0, 7, 0.00,60.00,Sunday
8,8.150096994785029
9,71.66595528788905
2,15, 1,15, 0, 8, 0.00,60.00,Sunday
8,8.049254931069063
9,72.15924446196078
2,15, 1,15, 0, 9, 0.00,60.00,Sunday
8,7.956048765211
9,72.61853834066487
2,15, 1,15, 0,10, 0.00,60.00,Sunday
8,7.9023507070918155
9,72.88451922489462
2,15, 1,15, 0,11, 0.00,60.00,Sunday
8,7.898945492868282
9,72.9014329260694
2,15, 1,15, 0,12, 0.00,60.00,Sunday
8,7.9093132784031255
9,72.84998270298932
2,15, 1,15, 0,13, 0.00,60.00,Sunday
8,7.914200746764325
9,72.82575018565701
2,15, 1,15, 0,14, 0.00,60.00,Sunday
8,7.879284414718463
9,72.99916125367893
2,15, 1,15, 0,15, 0.00,60.00,Sunday
8,7.853940060778391
9,73.12543928381977
2,15, 1,15, 0,16, 0.00,60.00,Sunday
8,7.762254152100868
9,73.58410873626507
2,15, 1,15, 0,17, 0.00,60.00,Sunday
8,7.648463764164525
9,74.15772741011949
2,15, 1,15, 0,18, 0.00,60.00,Sunday
8,7.515023656438498
9,74.8368993074236
2,15, 1,15, 0,19, 0.00,60.00,Sunday
8,7.388637254639199
9,75.48626612932746
2,15, 1,15, 0,20, 0.00,60.00,Sunday
8,7.293191491282557
9,75.98094084222302
2,15, 1,15, 0,21, 0.00,60.00,Sunday
8,7.199431960916769
9,76.47047254856146
2,15, 1,15, 0,22, 0.00,60.00,Sunday
8,7.094270598706959
9,77.02371832931807
2,15, 1,15, 0,23, 0.00,60.00,Sunday
8,6.985849283411899
9,77.59875381431785
2,15, 1,15, 0,24, 0.00,60.00,Sunday
8,6.860523858837456
9,78.26967940221266
2,16, 1,16, 0, 1, 0.00,60.00,Monday
8,6.72033291221031
9,79.25762818041115
2,16, 1,16, 0, 2, 0.00,60.00,Monday
8,6.598797940742169
9,80.0887586204364
2,16, 1,16, 0, 3, 0.00,60.00,Monday
8,6.471078810972826
9,80.79638150286426
2,16, 1,16, 0, 4, 0.00,60.00,Monday
8,6.362320744776377
9,81.40449436437898
2,16, 1,16, 0, 5, 0.00,60.00,Monday
8,6.2469043268392
9,82.05560955556761
2,16, 1,16, 0, 6, 0.00,60.00,Monday
8,6.116569251069241
9,82.79769296347926
2,16, 1,16, 0, 7, 0.00,60.00,Monday
8,6.003857571819771
9,83.44539611969661
2,16, 1,16, 0, 8, 0.00,60.00,Monday
8,6.152459572066661
9,82.59390643839482
2,16, 1,16, 0, 9, 0.00,60.00,Monday
8,6.433297248779069
9,81.0091925120329
2,16, 1,16, 0,10, 0.00,60.00,Monday
8,7.084919749359479
9,77.47717755563652
2,16, 1,16, 0,11, 0.00,60.00,Monday
8,8.860098714024257
9,68.71039925573113
2,16, 1,16, 0,12, 0.00,60.00,Monday
8,10.713956511561548
9,60.63917318174426
2,16, 1,16, 0,13, 0.00,60.00,Monday
8,12.287750057588857
9,54.639783630820425
2,16, 1,16, 0,14, 0.00,60.00,Monday
8,13.9391145778575
9,49.049224863268535
2,16, 1,16, 0,15, 0.00,60.00,Monday
8,15.472217557608294
9,44.415695358751606
2,16, 1,16, 0,16, 0.00,60.00,Monday
8,15.40085859655501
9,44.61471964681008
2,16, 1,16, 0,17, 0.00,60.00,Monday
8,15.140803285079746
9,45.35976485161476