Program Version,EnergyPlus, Version 24.2.0-94a887817b, YMD=2025.02.26 13:49
1,5,Environment Title[],Latitude[deg],Longitude[deg],Time Zone[],Elevation[m]
2,8,Day of Simulation[],Month[],Day of Month[],DST Indicator[1=yes 0=no],Hour[],StartMinute[],EndMinute[],DayType
3,5,Cumulative Day of Simulation[],Month[],Day of Month[],DST Indicator[1=yes 0=no],DayType  ! When Daily Meters Requested
4,2,Cumulative Days of Simulation[],Month[]  ! When Monthly Meters Requested
5,1,Cumulative Days of Simulation[] ! When Run Period Meters Requested
6,1,Calendar Year of Simulation[] ! When Annual Meters Requested
213,1,Electricity:Facility [J] !Hourly
6172,1,ElectricityNet:Facility [J] !Hourly
End of Data Dictionary
1,RUNPERIOD 1,  31.40, 121.45,   8.00,   5.50
2,1, 1, 1, 0, 1, 0.00,60.00,Holiday
213,154846754.5008639
6172,154846754.50086403
2,1, 1, 1, 0, 2, 0.00,60.00,Holiday
213,149151136.41848648
6172,149151136.41848662
2,1, 1, 1, 0, 3, 0.00,60.00,Holiday
213,149240666.74834278
6172,149240666.74834275
2,1, 1, 1, 0, 4, 0.00,60.00,Holiday
213,150421043.23688853
6172,150421043.2368885
2,1, 1, 1, 0, 5, 0.00,60.00,Holiday
213,155372281.35043234
6172,155372281.3504323
2,1, 1, 1, 0, 6, 0.00,60.00,Holiday
213,171775774.60549113
6172,171775774.60549128
2,1, 1, 1, 0, 7, 0.00,60.00,Holiday
213,193360293.90580785
6172,193360293.90580818
2,1, 1, 1, 0, 8, 0.00,60.00,Holiday
213,194643212.60944915
6172,193849336.1319754
2,1, 1, 1, 0, 9, 0.00,60.00,Holiday
213,186134895.5226303
6172,180541852.32993585
2,1, 1, 1, 0,10, 0.00,60.00,Holiday
213,169494703.05235726
6172,154869546.70458493
2,1, 1, 1, 0,11, 0.00,60.00,Holiday
213,161700169.3097389
6172,139715845.76839098
2,1, 1, 1, 0,12, 0.00,60.00,Holiday
213,166006794.9108396
6172,139243605.25925213
2,1, 1, 1, 0,13, 0.00,60.00,Holiday
213,170163801.7956763
6172,143789106.11725625
2,1, 1, 1, 0,14, 0.00,60.00,Holiday
213,160164934.56232247
6172,143862863.14468706
2,1, 1, 1, 0,15, 0.00,60.00,Holiday
213,154890955.23226273
6172,140801871.8600237
2,1, 1, 1, 0,16, 0.00,60.00,Holiday
213,164237748.92376906
6172,151430466.1814882
2,1, 1, 1, 0,17, 0.00,60.00,Holiday
213,197743410.14944047
6172,193848804.82047474
2,1, 1, 1, 0,18, 0.00,60.00,Holiday
213,254715616.60286283
6172,254715616.6028628
2,1, 1, 1, 0,19, 0.00,60.00,Holiday
213,255825605.3718706
6172,255825605.37187055
2,1, 1, 1, 0,20, 0.00,60.00,Holiday
213,241821231.158951
6172,241821231.15895104
2,1, 1, 1, 0,21, 0.00,60.00,Holiday
213,237363527.77273867
6172,237363527.77273902
2,1, 1, 1, 0,22, 0.00,60.00,Holiday
213,225296356.1916297
6172,225296356.19163007
2,1, 1, 1, 0,23, 0.00,60.00,Holiday
213,198129334.0097396
6172,198129334.00973988
2,1, 1, 1, 0,24, 0.00,60.00,Holiday
213,174709603.36060607
6172,174709603.3606064
2,2, 1, 2, 0, 1, 0.00,60.00,Monday
213,157947097.00225094
6172,157947097.00225106
2,2, 1, 2, 0, 2, 0.00,60.00,Monday
213,154646741.0705209
6172,154646741.07052103
2,2, 1, 2, 0, 3, 0.00,60.00,Monday
213,154438824.1935154
6172,154438824.19351536
2,2, 1, 2, 0, 4, 0.00,60.00,Monday
213,157388158.30649674
6172,157388158.30649674
2,2, 1, 2, 0, 5, 0.00,60.00,Monday
213,163404631.9879267
6172,163404631.98792672
2,2, 1, 2, 0, 6, 0.00,60.00,Monday
213,179121200.04811025
6172,179121200.04811034
2,2, 1, 2, 0, 7, 0.00,60.00,Monday
213,199805868.76190427
6172,199805868.7619046
2,2, 1, 2, 0, 8, 0.00,60.00,Monday
213,200872220.4429369
6172,199942374.99171165
2,2, 1, 2, 0, 9, 0.00,60.00,Monday
213,195313514.88326705
6172,186896566.41045442
2,2, 1, 2, 0,10, 0.00,60.00,Monday
213,181158041.70316607
6172,165019344.43319952
2,2, 1, 2, 0,11, 0.00,60.00,Monday
213,169891533.33304277
6172,147895225.84923726
2,2, 1, 2, 0,12, 0.00,60.00,Monday
213,166470450.18864772
6172,145881639.56696382
2,2, 1, 2, 0,13, 0.00,60.00,Monday
213,159641089.61742264
6172,128994209.41057754
2,2, 1, 2, 0,14, 0.00,60.00,Monday
213,155158941.50427946
6172,123393536.06937382
2,2, 1, 2, 0,15, 0.00,60.00,Monday
213,151805192.51018336
6172,129360979.35211685
2,2, 1, 2, 0,16, 0.00,60.00,Monday
213,159004246.1504931
6172,150206043.14965633
2,2, 1, 2, 0,17, 0.00,60.00,Monday
213,193067371.89216864
6172,190762808.63410047
2,2, 1, 2, 0,18, 0.00,60.00,Monday
213,262958284.63555378
6172,262958284.63555378
2,2, 1, 2, 0,19, 0.00,60.00,Monday
213,262234019.07066348
6172,262234019.07066342
2,2, 1, 2, 0,20, 0.00,60.00,Monday
213,244655554.95450354
6172,244655554.9545036
2,2, 1, 2, 0,21, 0.00,60.00,Monday
213,235883111.65924767
6172,235883111.659248
2,2, 1, 2, 0,22, 0.00,60.00,Monday
213,220124587.14544272
6172,220124587.14544305
2,2, 1, 2, 0,23, 0.00,60.00,Monday
213,188756988.58174968
6172,188756988.58174998
2,2, 1, 2, 0,24, 0.00,60.00,Monday
213,163563816.62072712
6172,163563816.62072742
2,3, 1, 3, 0, 1, 0.00,60.00,Tuesday
213,143847796.6922634
6172,143847796.6922635
2,3, 1, 3, 0, 2, 0.00,60.00,Tuesday
213,140053488.83658382
6172,140053488.8365838
2,3, 1, 3, 0, 3, 0.00,60.00,Tuesday
213,143001428.6985134
6172,143001428.69851333
2,3, 1, 3, 0, 4, 0.00,60.00,Tuesday
213,148463005.87424478
6172,148463005.87424475
2,3, 1, 3, 0, 5, 0.00,60.00,Tuesday
213,153453606.5737437
6172,153453606.57374367
2,3, 1, 3, 0, 6, 0.00,60.00,Tuesday
213,169861901.09027445
6172,169861901.09027457
2,3, 1, 3, 0, 7, 0.00,60.00,Tuesday
213,190589764.72691762
6172,190589764.72691792
2,3, 1, 3, 0, 8, 0.00,60.00,Tuesday
213,192856379.23558947
6172,191829375.3341964
2,3, 1, 3, 0, 9, 0.00,60.00,Tuesday
213,190965239.15211296
6172,183790153.84115815
2,3, 1, 3, 0,10, 0.00,60.00,Tuesday
213,172959175.71224016
6172,153587491.4129697
2,3, 1, 3, 0,11, 0.00,60.00,Tuesday
213,164397785.78484577
6172,144108579.54198077
2,3, 1, 3, 0,12, 0.00,60.00,Tuesday
213,162988968.38285378
6172,128112719.49426046
2,3, 1, 3, 0,13, 0.00,60.00,Tuesday
213,158738646.5960078
6172,137735505.20624197
2,3, 1, 3, 0,14, 0.00,60.00,Tuesday
213,155153046.5185158
6172,134284013.4448756
2,3, 1, 3, 0,15, 0.00,60.00,Tuesday
213,152718777.57651007
6172,126663156.95697212
2,3, 1, 3, 0,16, 0.00,60.00,Tuesday
213,162207840.04134253
6172,152131639.0685344
2,3, 1, 3, 0,17, 0.00,60.00,Tuesday
213,199811065.29439
6172,196567913.83998552
2,3, 1, 3, 0,18, 0.00,60.00,Tuesday
213,260266159.115162
6172,260266159.11516196
2,3, 1, 3, 0,19, 0.00,60.00,Tuesday
213,264127438.17200658
6172,264127438.17200652
2,3, 1, 3, 0,20, 0.00,60.00,Tuesday
213,253123325.67942023
6172,253123325.6794203
2,3, 1, 3, 0,21, 0.00,60.00,Tuesday
213,245175616.47083515
6172,245175616.47083545
2,3, 1, 3, 0,22, 0.00,60.00,Tuesday
213,230058398.3083238
6172,230058398.30832407
2,3, 1, 3, 0,23, 0.00,60.00,Tuesday
213,202034483.31089586
6172,202034483.31089613
2,3, 1, 3, 0,24, 0.00,60.00,Tuesday
213,179990450.53487587
6172,179990450.53487617
2,4, 1, 4, 0, 1, 0.00,60.00,Wednesday
213,162350361.75666368
6172,162350361.7566638
2,4, 1, 4, 0, 2, 0.00,60.00,Wednesday
213,160167929.83010867
6172,160167929.8301088
2,4, 1, 4, 0, 3, 0.00,60.00,Wednesday
213,157744513.1005439
6172,157744513.10054392
2,4, 1, 4, 0, 4, 0.00,60.00,Wednesday
213,157341676.87619507
6172,157341676.87619504
2,4, 1, 4, 0, 5, 0.00,60.00,Wednesday
213,160873844.73912278
6172,160873844.7391228
2,4, 1, 4, 0, 6, 0.00,60.00,Wednesday
213,174259642.6227149
6172,174259642.62271503
2,4, 1, 4, 0, 7, 0.00,60.00,Wednesday
213,192724790.8826488
6172,192724790.8826491
2,4, 1, 4, 0, 8, 0.00,60.00,Wednesday
213,191913334.8034304
6172,191167147.58186114
2,4, 1, 4, 0, 9, 0.00,60.00,Wednesday
213,190575477.89622164
6172,183460705.59548974
2,4, 1, 4, 0,10, 0.00,60.00,Wednesday
213,177658432.41575187
6172,165002855.29091242
2,4, 1, 4, 0,11, 0.00,60.00,Wednesday
213,167800556.65270457
6172,142571751.67239612
2,4, 1, 4, 0,12, 0.00,60.00,Wednesday
213,166539234.4974328
6172,143721842.57549065
2,4, 1, 4, 0,13, 0.00,60.00,Wednesday
213,160217947.95825493
6172,127428408.95397416
2,4, 1, 4, 0,14, 0.00,60.00,Wednesday
213,155444314.01366657
6172,125450479.49602732
2,4, 1, 4, 0,15, 0.00,60.00,Wednesday
213,153219654.3152655
6172,130844043.94646172
2,4, 1, 4, 0,16, 0.00,60.00,Wednesday
213,160302130.85690314
6172,149332498.0950836
2,4, 1, 4, 0,17, 0.00,60.00,Wednesday
213,193519647.6171589
6172,192192222.45907438
2,4, 1, 4, 0,18, 0.00,60.00,Wednesday
213,268815010.3011876
6172,268815010.3011875
2,4, 1, 4, 0,19, 0.00,60.00,Wednesday
213,264230401.86236367
6172,264230401.86236358
2,4, 1, 4, 0,20, 0.00,60.00,Wednesday
213,245879298.8916123
6172,245879298.89161232
2,4, 1, 4, 0,21, 0.00,60.00,Wednesday
213,237447844.20899314
6172,237447844.20899343
2,4, 1, 4, 0,22, 0.00,60.00,Wednesday
213,222759870.5396364
6172,222759870.5396367
2,4, 1, 4, 0,23, 0.00,60.00,Wednesday
213,194123607.89127278
6172,194123607.89127305
2,4, 1, 4, 0,24, 0.00,60.00,Wednesday
213,169284602.4099261
6172,169284602.40992638
2,5, 1, 5, 0, 1, 0.00,60.00,Thursday
213,150403992.80151236
6172,150403992.80151248
2,5, 1, 5, 0, 2, 0.00,60.00,Thursday
213,146044448.2776094
6172,146044448.27760947
2,5, 1, 5, 0, 3, 0.00,60.00,Thursday
213,147454398.18714443
6172,147454398.1871444
2,5, 1, 5, 0, 4, 0.00,60.00,Thursday
213,150216525.11649242
6172,150216525.1164924
2,5, 1, 5, 0, 5, 0.00,60.00,Thursday
213,153861433.91376245
6172,153861433.91376242
2,5, 1, 5, 0, 6, 0.00,60.00,Thursday
213,168115223.31045488
6172,168115223.31045502
2,5, 1, 5, 0, 7, 0.00,60.00,Thursday
213,187485487.32164738
6172,187485487.32164767
2,5, 1, 5, 0, 8, 0.00,60.00,Thursday
213,188272533.31437474
6172,187409262.63515309
2,5, 1, 5, 0, 9, 0.00,60.00,Thursday
213,183094939.15593296
6172,175811279.34949905
2,5, 1, 5, 0,10, 0.00,60.00,Thursday
213,169160727.52840656
6172,151330961.17852762
2,5, 1, 5, 0,11, 0.00,60.00,Thursday
213,161293651.2606302
6172,135113010.3651272
2,5, 1, 5, 0,12, 0.00,60.00,Thursday
213,161597994.98655558
6172,135627320.4473132
2,5, 1, 5, 0,13, 0.00,60.00,Thursday
213,159694867.3960247
6172,139325591.78826338
2,5, 1, 5, 0,14, 0.00,60.00,Thursday
213,145622709.6503315
6172,118613923.91627476
2,5, 1, 5, 0,15, 0.00,60.00,Thursday
213,142631066.31580436
6172,119824915.97002813
2,5, 1, 5, 0,16, 0.00,60.00,Thursday
213,150061278.59462768
6172,136845283.61853662
2,5, 1, 5, 0,17, 0.00,60.00,Thursday
213,180627094.02761248
6172,177123659.39550653
2,5, 1, 5, 0,18, 0.00,60.00,Thursday
213,242211848.83882302
6172,242211848.8388229
2,5, 1, 5, 0,19, 0.00,60.00,Thursday
213,247783226.49667636
6172,247783226.49667633
2,5, 1, 5, 0,20, 0.00,60.00,Thursday
213,242720823.92459768
6172,242720823.92459777
2,5, 1, 5, 0,21, 0.00,60.00,Thursday
213,237565764.2748403
6172,237565764.2748406
2,5, 1, 5, 0,22, 0.00,60.00,Thursday
213,222395360.23167497
6172,222395360.23167527
2,5, 1, 5, 0,23, 0.00,60.00,Thursday
213,189409972.80043423
6172,189409972.80043453
2,5, 1, 5, 0,24, 0.00,60.00,Thursday
213,160024290.99598676
6172,160024290.99598706
2,6, 1, 6, 0, 1, 0.00,60.00,Friday
213,138385106.3600075
6172,138385106.36000758
2,6, 1, 6, 0, 2, 0.00,60.00,Friday
213,133881751.12567344
6172,133881751.12567338
2,6, 1, 6, 0, 3, 0.00,60.00,Friday
213,133195522.91980653
6172,133195522.9198065
2,6, 1, 6, 0, 4, 0.00,60.00,Friday
213,133681392.53920916
6172,133681392.53920913
2,6, 1, 6, 0, 5, 0.00,60.00,Friday
213,136715187.80753338
6172,136715187.80753338
2,6, 1, 6, 0, 6, 0.00,60.00,Friday
213,151383405.10663956
6172,151383405.10663968
2,6, 1, 6, 0, 7, 0.00,60.00,Friday
213,172957125.7071364
6172,172957125.7071367
2,6, 1, 6, 0, 8, 0.00,60.00,Friday
213,176913964.3015846
6172,176552081.10693893
2,6, 1, 6, 0, 9, 0.00,60.00,Friday
213,182288733.80340114
6172,179694838.66729337
2,6, 1, 6, 0,10, 0.00,60.00,Friday
213,175003306.40899697
6172,169855999.12235454
2,6, 1, 6, 0,11, 0.00,60.00,Friday
213,169258002.10162818
6172,161924218.84297678
2,6, 1, 6, 0,12, 0.00,60.00,Friday
213,169656972.38476157
6172,160864596.26378343
2,6, 1, 6, 0,13, 0.00,60.00,Friday
213,165348132.43789187
6172,156223132.2095271
2,6, 1, 6, 0,14, 0.00,60.00,Friday
213,161174096.52306882
6172,152848037.13222405
2,6, 1, 6, 0,15, 0.00,60.00,Friday
213,154858117.61630142
6172,148313406.92892367
2,6, 1, 6, 0,16, 0.00,60.00,Friday
213,161098885.89538413
6172,156930252.2398087
2,6, 1, 6, 0,17, 0.00,60.00,Friday
213,191518722.72899762
6172,189852561.36739358
2,6, 1, 6, 0,18, 0.00,60.00,Friday
213,255748784.65140316
6172,255748784.65140307
2,6, 1, 6, 0,19, 0.00,60.00,Friday
213,256131946.60726124
6172,256131946.60726118
2,6, 1, 6, 0,20, 0.00,60.00,Friday
213,242499371.58101982
6172,242499371.58101988
2,6, 1, 6, 0,21, 0.00,60.00,Friday
213,235674316.45785916
6172,235674316.45785952
2,6, 1, 6, 0,22, 0.00,60.00,Friday
213,221979276.5073644
6172,221979276.5073647
2,6, 1, 6, 0,23, 0.00,60.00,Friday
213,192801628.04223058
6172,192801628.04223084
2,6, 1, 6, 0,24, 0.00,60.00,Friday
213,168337244.8855667
6172,168337244.885567
2,7, 1, 7, 0, 1, 0.00,60.00,Saturday
213,148298322.56011343
6172,148298322.56011358
2,7, 1, 7, 0, 2, 0.00,60.00,Saturday
213,144214541.81012407
6172,144214541.8101241
2,7, 1, 7, 0, 3, 0.00,60.00,Saturday
213,142424890.6935672
6172,142424890.69356716
2,7, 1, 7, 0, 4, 0.00,60.00,Saturday
213,142703399.49363112
6172,142703399.49363112
2,7, 1, 7, 0, 5, 0.00,60.00,Saturday
213,145929939.73054034
6172,145929939.73054034
2,7, 1, 7, 0, 6, 0.00,60.00,Saturday
213,160016871.00555846
6172,160016871.00555858
2,7, 1, 7, 0, 7, 0.00,60.00,Saturday
213,179749326.2274711
6172,179749326.22747144
2,7, 1, 7, 0, 8, 0.00,60.00,Saturday
213,181035087.5291988
6172,180265824.938173
2,7, 1, 7, 0, 9, 0.00,60.00,Saturday
213,180935288.59378386
6172,176452014.77873057
2,7, 1, 7, 0,10, 0.00,60.00,Saturday
213,175900774.57809922
6172,170424183.91882753
2,7, 1, 7, 0,11, 0.00,60.00,Saturday
213,168473766.01869392
6172,161032093.85694456
2,7, 1, 7, 0,12, 0.00,60.00,Saturday
213,166477998.82456905
6172,155868727.05757916
2,7, 1, 7, 0,13, 0.00,60.00,Saturday
213,160410520.04046178
6172,141726047.1278215
2,7, 1, 7, 0,14, 0.00,60.00,Saturday
213,153089714.12937725
6172,134994328.34512144
2,7, 1, 7, 0,15, 0.00,60.00,Saturday
213,150707562.183215
6172,135998826.39362302
2,7, 1, 7, 0,16, 0.00,60.00,Saturday
213,156611101.3529102
6172,147501855.48090032
2,7, 1, 7, 0,17, 0.00,60.00,Saturday
213,186917826.39753523
6172,184879858.36821666
2,7, 1, 7, 0,18, 0.00,60.00,Saturday
213,249992871.66034886
6172,249992871.66034883
2,7, 1, 7, 0,19, 0.00,60.00,Saturday
213,252865759.41411856
6172,252865759.41411853
2,7, 1, 7, 0,20, 0.00,60.00,Saturday
213,239400614.86907986
6172,239400614.8690799
2,7, 1, 7, 0,21, 0.00,60.00,Saturday
213,236089683.05517295
6172,236089683.05517328
2,7, 1, 7, 0,22, 0.00,60.00,Saturday
213,227745392.72804508
6172,227745392.72804534
2,7, 1, 7, 0,23, 0.00,60.00,Saturday
213,200486439.6944596
6172,200486439.6944599
2,7, 1, 7, 0,24, 0.00,60.00,Saturday
213,181635871.19813094
6172,181635871.19813117
2,8, 1, 8, 0, 1, 0.00,60.00,Sunday
213,170608952.7459557
6172,170608952.74595582
2,8, 1, 8, 0, 2, 0.00,60.00,Sunday
213,172811411.98349565
6172,172811411.98349574
2,8, 1, 8, 0, 3, 0.00,60.00,Sunday
213,178189424.63199112
6172,178189424.6319913
2,8, 1, 8, 0, 4, 0.00,60.00,Sunday
213,182697693.31370693
6172,182697693.31370708
2,8, 1, 8, 0, 5, 0.00,60.00,Sunday
213,188207582.68106014
6172,188207582.68106028
2,8, 1, 8, 0, 6, 0.00,60.00,Sunday
213,204676853.39769328
6172,204676853.39769343
2,8, 1, 8, 0, 7, 0.00,60.00,Sunday
213,226810075.39993402
6172,226810075.39993435
2,8, 1, 8, 0, 8, 0.00,60.00,Sunday
213,232210985.01572666
6172,231332887.31147164
2,8, 1, 8, 0, 9, 0.00,60.00,Sunday
213,237484925.58757216
6172,231158663.34682116
2,8, 1, 8, 0,10, 0.00,60.00,Sunday
213,232009995.5474911
6172,218784402.3709171
2,8, 1, 8, 0,11, 0.00,60.00,Sunday
213,222089014.46116996
6172,202651204.00182945
2,8, 1, 8, 0,12, 0.00,60.00,Sunday
213,221002924.46537346
6172,197237416.6725815
2,8, 1, 8, 0,13, 0.00,60.00,Sunday
213,214994407.92699164
6172,189712627.9300158
2,8, 1, 8, 0,14, 0.00,60.00,Sunday
213,207915492.53126356
6172,186082659.7250921
2,8, 1, 8, 0,15, 0.00,60.00,Sunday
213,204649019.0375881
6172,194264682.02025428
2,8, 1, 8, 0,16, 0.00,60.00,Sunday
213,210551451.00260058
6172,204389133.35765857
2,8, 1, 8, 0,17, 0.00,60.00,Sunday
213,239824733.8798321
6172,236997897.31703752
2,8, 1, 8, 0,18, 0.00,60.00,Sunday
213,304915052.4757998
6172,304915052.47579974
2,8, 1, 8, 0,19, 0.00,60.00,Sunday
213,309985973.0776835
6172,309985973.0776834
2,8, 1, 8, 0,20, 0.00,60.00,Sunday
213,301733010.4081473
6172,301733010.4081473
2,8, 1, 8, 0,21, 0.00,60.00,Sunday
213,300871842.17642385
6172,300871842.176424
2,8, 1, 8, 0,22, 0.00,60.00,Sunday
213,290078809.02378356
6172,290078809.0237839
2,8, 1, 8, 0,23, 0.00,60.00,Sunday
213,266769649.94195405
6172,266769649.94195434
2,8, 1, 8, 0,24, 0.00,60.00,Sunday
213,247414493.37053394
6172,247414493.37053424
2,9, 1, 9, 0, 1, 0.00,60.00,Monday
213,233034406.10406685
6172,233034406.104067
2,9, 1, 9, 0, 2, 0.00,60.00,Monday
213,231264335.969176
6172,231264335.96917614
2,9, 1, 9, 0, 3, 0.00,60.00,Monday
213,217755190.31438574
6172,217755190.3143859
2,9, 1, 9, 0, 4, 0.00,60.00,Monday
213,209733157.50262392
6172,209733157.50262406
2,9, 1, 9, 0, 5, 0.00,60.00,Monday
213,215078701.28136986
6172,215078701.28137007
2,9, 1, 9, 0, 6, 0.00,60.00,Monday
213,229228920.1833883
6172,229228920.18338838
2,9, 1, 9, 0, 7, 0.00,60.00,Monday
213,245975158.4878037
6172,245975158.48780406
2,9, 1, 9, 0, 8, 0.00,60.00,Monday
213,242490361.2295143
6172,240991484.30256218
2,9, 1, 9, 0, 9, 0.00,60.00,Monday
213,232043728.57635233
6172,220425389.63706946
2,9, 1, 9, 0,10, 0.00,60.00,Monday
213,202058919.06765914
6172,182263978.34420073
2,9, 1, 9, 0,11, 0.00,60.00,Monday
213,191189467.51139325
6172,155933475.86115134
2,9, 1, 9, 0,12, 0.00,60.00,Monday
213,190193842.6870606
6172,159960101.53467423
2,9, 1, 9, 0,13, 0.00,60.00,Monday
213,184177560.38017783
6172,163404217.93108648
2,9, 1, 9, 0,14, 0.00,60.00,Monday
213,178930899.50063798
6172,160872977.01175246
2,9, 1, 9, 0,15, 0.00,60.00,Monday
213,173464660.5320923
6172,159106728.85572812
2,9, 1, 9, 0,16, 0.00,60.00,Monday
213,179570388.32332435
6172,170423671.56694257
2,9, 1, 9, 0,17, 0.00,60.00,Monday
213,210345103.59515288
6172,207376897.06078207
2,9, 1, 9, 0,18, 0.00,60.00,Monday
213,284512670.9395708
6172,284512670.9395708
2,9, 1, 9, 0,19, 0.00,60.00,Monday
213,280577110.705111
6172,280577110.70511097
2,9, 1, 9, 0,20, 0.00,60.00,Monday
213,270509633.4073751
6172,270509633.4073751
2,9, 1, 9, 0,21, 0.00,60.00,Monday
213,264398818.52355435
6172,264398818.52355456
2,9, 1, 9, 0,22, 0.00,60.00,Monday
213,252167101.36648482
6172,252167101.36648512
2,9, 1, 9, 0,23, 0.00,60.00,Monday
213,228336911.07025722
6172,228336911.07025743
2,9, 1, 9, 0,24, 0.00,60.00,Monday
213,210042270.15428272
6172,210042270.154283
2,10, 1,10, 0, 1, 0.00,60.00,Tuesday
213,198997590.01102516
6172,198997590.0110253
2,10, 1,10, 0, 2, 0.00,60.00,Tuesday
213,196813019.57663155
6172,196813019.5766317
2,10, 1,10, 0, 3, 0.00,60.00,Tuesday
213,197645283.7250489
6172,197645283.72504905
2,10, 1,10, 0, 4, 0.00,60.00,Tuesday
213,199402517.50795203
6172,199402517.50795215
2,10, 1,10, 0, 5, 0.00,60.00,Tuesday
213,202958908.05804786
6172,202958908.058048
2,10, 1,10, 0, 6, 0.00,60.00,Tuesday
213,215436032.2888012
6172,215436032.28880137
2,10, 1,10, 0, 7, 0.00,60.00,Tuesday
213,232149083.64887413
6172,232149083.64887443
2,10, 1,10, 0, 8, 0.00,60.00,Tuesday
213,227358249.8437426
6172,226413500.63367674
2,10, 1,10, 0, 9, 0.00,60.00,Tuesday
213,215409006.08842114
6172,207013295.24397364
2,10, 1,10, 0,10, 0.00,60.00,Tuesday
213,189093815.8385856
6172,172560664.8518266
2,10, 1,10, 0,11, 0.00,60.00,Tuesday
213,179375193.2771329
6172,160077215.62782705
2,10, 1,10, 0,12, 0.00,60.00,Tuesday
213,177275680.64115036
6172,146025313.4066472
2,10, 1,10, 0,13, 0.00,60.00,Tuesday
213,169794114.97619182
6172,135743740.250339
2,10, 1,10, 0,14, 0.00,60.00,Tuesday
213,164224506.3451279
6172,133163154.90191205
2,10, 1,10, 0,15, 0.00,60.00,Tuesday
213,162752337.59009853
6172,137578902.48494777
2,10, 1,10, 0,16, 0.00,60.00,Tuesday
213,172639744.60567775
6172,160318195.84132174
2,10, 1,10, 0,17, 0.00,60.00,Tuesday
213,204853380.2875796
6172,203041194.3358972
2,10, 1,10, 0,18, 0.00,60.00,Tuesday
213,265571275.23401356
6172,265571275.2340135
2,10, 1,10, 0,19, 0.00,60.00,Tuesday
213,266895220.6847659
6172,266895220.68476582
2,10, 1,10, 0,20, 0.00,60.00,Tuesday
213,256116639.19179758
6172,256116639.19179755
2,10, 1,10, 0,21, 0.00,60.00,Tuesday
213,252315512.27143738
6172,252315512.2714376
2,10, 1,10, 0,22, 0.00,60.00,Tuesday
213,241656811.29867673
6172,241656811.298677
2,10, 1,10, 0,23, 0.00,60.00,Tuesday
213,219641765.10640284
6172,219641765.10640314
2,10, 1,10, 0,24, 0.00,60.00,Tuesday
213,200188630.79582655
6172,200188630.79582685
2,11, 1,11, 0, 1, 0.00,60.00,Wednesday
213,184982699.2369449
6172,184982699.23694506
2,11, 1,11, 0, 2, 0.00,60.00,Wednesday
213,182603338.2563593
6172,182603338.25635943
2,11, 1,11, 0, 3, 0.00,60.00,Wednesday
213,175573395.46693525
6172,175573395.4669354
2,11, 1,11, 0, 4, 0.00,60.00,Wednesday
213,171913982.631514
6172,171913982.63151407
2,11, 1,11, 0, 5, 0.00,60.00,Wednesday
213,177064733.13899118
6172,177064733.13899136
2,11, 1,11, 0, 6, 0.00,60.00,Wednesday
213,191918180.89452556
6172,191918180.89452568
2,11, 1,11, 0, 7, 0.00,60.00,Wednesday
213,210593132.60341093
6172,210593132.60341123
2,11, 1,11, 0, 8, 0.00,60.00,Wednesday
213,210575614.9501439
6172,209373181.68868482
2,11, 1,11, 0, 9, 0.00,60.00,Wednesday
213,218220376.5430566
6172,211091022.11823767
2,11, 1,11, 0,10, 0.00,60.00,Wednesday
213,193187298.46313697
6172,175129107.23079893
2,11, 1,11, 0,11, 0.00,60.00,Wednesday
213,183709141.60256454
6172,155932656.55622268
2,11, 1,11, 0,12, 0.00,60.00,Wednesday
213,181676111.8892365
6172,147780370.13001758
2,11, 1,11, 0,13, 0.00,60.00,Wednesday
213,174086662.64619488
6172,139978359.56691638
2,11, 1,11, 0,14, 0.00,60.00,Wednesday
213,166521083.32152832
6172,135835325.7401832
2,11, 1,11, 0,15, 0.00,60.00,Wednesday
213,159575853.26444805
6172,135106570.27050194
2,11, 1,11, 0,16, 0.00,60.00,Wednesday
213,165226046.4832765
6172,153433102.51724377
2,11, 1,11, 0,17, 0.00,60.00,Wednesday
213,193591911.76763797
6172,191493333.8606837
2,11, 1,11, 0,18, 0.00,60.00,Wednesday
213,258056475.67146873
6172,258056475.67146868
2,11, 1,11, 0,19, 0.00,60.00,Wednesday
213,257437098.49427453
6172,257437098.49427447
2,11, 1,11, 0,20, 0.00,60.00,Wednesday
213,243789980.40043274
6172,243789980.4004328
2,11, 1,11, 0,21, 0.00,60.00,Wednesday
213,240372720.11435103
6172,240372720.11435133
2,11, 1,11, 0,22, 0.00,60.00,Wednesday
213,229904861.19141683
6172,229904861.1914171
2,11, 1,11, 0,23, 0.00,60.00,Wednesday
213,204320616.91161194
6172,204320616.9116122
2,11, 1,11, 0,24, 0.00,60.00,Wednesday
213,181633309.13213786
6172,181633309.13213813
2,12, 1,12, 0, 1, 0.00,60.00,Thursday
213,163392781.43843424
6172,163392781.4384344
2,12, 1,12, 0, 2, 0.00,60.00,Thursday
213,159508122.02572018
6172,159508122.02572027
2,12, 1,12, 0, 3, 0.00,60.00,Thursday
213,159138305.6458209
6172,159138305.64582092
2,12, 1,12, 0, 4, 0.00,60.00,Thursday
213,159533325.74762306
6172,159533325.74762303
2,12, 1,12, 0, 5, 0.00,60.00,Thursday
213,162828005.4260624
6172,162828005.42606246
2,12, 1,12, 0, 6, 0.00,60.00,Thursday
213,175531005.64398783
6172,175531005.64398798
2,12, 1,12, 0, 7, 0.00,60.00,Thursday
213,192879603.21691546
6172,192879603.21691582
2,12, 1,12, 0, 8, 0.00,60.00,Thursday
213,193050307.87163708
6172,192568778.65772024
2,12, 1,12, 0, 9, 0.00,60.00,Thursday
213,202298238.66860944
6172,199281179.98658833
2,12, 1,12, 0,10, 0.00,60.00,Thursday
213,185162821.47133136
6172,179336859.45696062
2,12, 1,12, 0,11, 0.00,60.00,Thursday
213,176596089.20743942
6172,168319287.28860587
2,12, 1,12, 0,12, 0.00,60.00,Thursday
213,175186975.44452494
6172,165327424.30967999
2,12, 1,12, 0,13, 0.00,60.00,Thursday
213,171035763.16560215
6172,160776922.3030437
2,12, 1,12, 0,14, 0.00,60.00,Thursday
213,167929729.50632238
6172,158513152.25134015
2,12, 1,12, 0,15, 0.00,60.00,Thursday
213,166610869.01192206
6172,159134066.6248964
2,12, 1,12, 0,16, 0.00,60.00,Thursday
213,175545103.90840435
6172,170708273.64614713
2,12, 1,12, 0,17, 0.00,60.00,Thursday
213,205839469.4906179
6172,203858029.4453315
2,12, 1,12, 0,18, 0.00,60.00,Thursday
213,281240871.63156605
6172,281240871.631566
2,12, 1,12, 0,19, 0.00,60.00,Thursday
213,272120264.8152789
6172,272120264.8152788
2,12, 1,12, 0,20, 0.00,60.00,Thursday
213,259066961.1293068
6172,259066961.12930682
2,12, 1,12, 0,21, 0.00,60.00,Thursday
213,251522830.76862076
6172,251522830.76862097
2,12, 1,12, 0,22, 0.00,60.00,Thursday
213,237392825.39438897
6172,237392825.39438933
2,12, 1,12, 0,23, 0.00,60.00,Thursday
213,212642201.77510878
6172,212642201.77510905
2,12, 1,12, 0,24, 0.00,60.00,Thursday
213,190279978.80208302
6172,190279978.8020833
2,13, 1,13, 0, 1, 0.00,60.00,Friday
213,174068965.7896865
6172,174068965.78968665
2,13, 1,13, 0, 2, 0.00,60.00,Friday
213,168957729.65191066
6172,168957729.65191078
2,13, 1,13, 0, 3, 0.00,60.00,Friday
213,166116697.29338104
6172,166116697.29338107
2,13, 1,13, 0, 4, 0.00,60.00,Friday
213,165039841.9265275
6172,165039841.92652753
2,13, 1,13, 0, 5, 0.00,60.00,Friday
213,166547244.37484568
6172,166547244.37484577
2,13, 1,13, 0, 6, 0.00,60.00,Friday
213,177463115.95833972
6172,177463115.95833984
2,13, 1,13, 0, 7, 0.00,60.00,Friday
213,192417240.92306605
6172,192417240.92306635
2,13, 1,13, 0, 8, 0.00,60.00,Friday
213,192385346.83907577
6172,192361120.6502074
2,13, 1,13, 0, 9, 0.00,60.00,Friday
213,198498847.54988852
6172,197940202.83243942
2,13, 1,13, 0,10, 0.00,60.00,Friday
213,180362428.11084762
6172,179076967.79218397
2,13, 1,13, 0,11, 0.00,60.00,Friday
213,174766784.41447955
6172,172802087.462672
2,13, 1,13, 0,12, 0.00,60.00,Friday
213,175856804.49194804
6172,173467130.57021847
2,13, 1,13, 0,13, 0.00,60.00,Friday
213,172562074.2524306
6172,170071090.05192193
2,13, 1,13, 0,14, 0.00,60.00,Friday
213,169231624.81113073
6172,166966937.8478322
2,13, 1,13, 0,15, 0.00,60.00,Friday
213,166415264.82015204
6172,164682004.26894373
2,13, 1,13, 0,16, 0.00,60.00,Friday
213,173243516.69395822
6172,172228254.6224805
2,13, 1,13, 0,17, 0.00,60.00,Friday
213,201574897.03517178
6172,201317227.44849116
2,13, 1,13, 0,18, 0.00,60.00,Friday
213,281799235.88880616
6172,281799235.88880605
2,13, 1,13, 0,19, 0.00,60.00,Friday
213,267594106.98734063
6172,267594106.98734054
2,13, 1,13, 0,20, 0.00,60.00,Friday
213,253588138.73690546
6172,253588138.73690546
2,13, 1,13, 0,21, 0.00,60.00,Friday
213,247117871.1144639
6172,247117871.11446416
2,13, 1,13, 0,22, 0.00,60.00,Friday
213,233617324.75227034
6172,233617324.75227064
2,13, 1,13, 0,23, 0.00,60.00,Friday
213,205680926.53574038
6172,205680926.5357407
2,13, 1,13, 0,24, 0.00,60.00,Friday
213,182605074.98818293
6172,182605074.98818326
2,14, 1,14, 0, 1, 0.00,60.00,Saturday
213,166472918.67493847
6172,166472918.67493856
2,14, 1,14, 0, 2, 0.00,60.00,Saturday
213,164924734.9651355
6172,164924734.9651356
2,14, 1,14, 0, 3, 0.00,60.00,Saturday
213,177425155.90134537
6172,177425155.9013455
2,14, 1,14, 0, 4, 0.00,60.00,Saturday
213,186847019.94063896
6172,186847019.9406391
2,14, 1,14, 0, 5, 0.00,60.00,Saturday
213,189430048.5209425
6172,189430048.52094266
2,14, 1,14, 0, 6, 0.00,60.00,Saturday
213,201819254.42677635
6172,201819254.4267765
2,14, 1,14, 0, 7, 0.00,60.00,Saturday
213,217608512.39817852
6172,217608512.39817882
2,14, 1,14, 0, 8, 0.00,60.00,Saturday
213,218873148.6003189
6172,218711077.98845273
2,14, 1,14, 0, 9, 0.00,60.00,Saturday
213,216106286.9549208
6172,214661443.68794
2,14, 1,14, 0,10, 0.00,60.00,Saturday
213,206295116.0341103
6172,203290908.94355017
2,14, 1,14, 0,11, 0.00,60.00,Saturday
213,200068579.0085359
6172,195688967.29713902
2,14, 1,14, 0,12, 0.00,60.00,Saturday
213,203993593.02966225
6172,198760971.5931791
2,14, 1,14, 0,13, 0.00,60.00,Saturday
213,201911880.85659274
6172,196474350.88249013
2,14, 1,14, 0,14, 0.00,60.00,Saturday
213,197421089.6948204
6172,192434344.89443347
2,14, 1,14, 0,15, 0.00,60.00,Saturday
213,200525790.69099832
6172,196604253.16138494
2,14, 1,14, 0,16, 0.00,60.00,Saturday
213,213213046.47683448
6172,210732128.97877288
2,14, 1,14, 0,17, 0.00,60.00,Saturday
213,236744949.1335178
6172,235809153.24623695
2,14, 1,14, 0,18, 0.00,60.00,Saturday
213,296303899.7484572
6172,296303899.7484571
2,14, 1,14, 0,19, 0.00,60.00,Saturday
213,297243182.64990073
6172,297243182.6499007
2,14, 1,14, 0,20, 0.00,60.00,Saturday
213,285024997.9450052
6172,285024997.9450051
2,14, 1,14, 0,21, 0.00,60.00,Saturday
213,273155842.89327306
6172,273155842.89327323
2,14, 1,14, 0,22, 0.00,60.00,Saturday
213,255361082.1152083
6172,255361082.11520857
2,14, 1,14, 0,23, 0.00,60.00,Saturday
213,230478614.44428
6172,230478614.44428033
2,14, 1,14, 0,24, 0.00,60.00,Saturday
213,209859514.4692101
6172,209859514.46921042
2,15, 1,15, 0, 1, 0.00,60.00,Sunday
213,194782606.9194174
6172,194782606.91941756
2,15, 1,15, 0, 2, 0.00,60.00,Sunday
213,190952241.26902276
6172,190952241.26902294
2,15, 1,15, 0, 3, 0.00,60.00,Sunday
213,185589163.31868684
6172,185589163.31868705
2,15, 1,15, 0, 4, 0.00,60.00,Sunday
213,182319711.0934618
6172,182319711.09346196
2,15, 1,15, 0, 5, 0.00,60.00,Sunday
213,184064871.02206194
6172,184064871.0220621
2,15, 1,15, 0, 6, 0.00,60.00,Sunday
213,195242837.5564351
6172,195242837.5564352
2,15, 1,15, 0, 7, 0.00,60.00,Sunday
213,209957002.74451503
6172,209957002.74451533
2,15, 1,15, 0, 8, 0.00,60.00,Sunday
213,210537052.92584145
6172,210537052.92584175
2,15, 1,15, 0, 9, 0.00,60.00,Sunday
213,222065977.06495863
6172,221910737.53752017
2,15, 1,15, 0,10, 0.00,60.00,Sunday
213,224698551.127633
6172,224095238.50080553
2,15, 1,15, 0,11, 0.00,60.00,Sunday
213,221065002.54376888
6172,220075643.93155974
2,15, 1,15, 0,12, 0.00,60.00,Sunday
213,227541563.38078254
6172,226305331.5588209
2,15, 1,15, 0,13, 0.00,60.00,Sunday
213,228432469.4001383
6172,227144731.2205074
2,15, 1,15, 0,14, 0.00,60.00,Sunday
213,226183646.13747746
6172,225034655.28431368
2,15, 1,15, 0,15, 0.00,60.00,Sunday
213,234835527.08475983
6172,233966202.19884154
2,15, 1,15, 0,16, 0.00,60.00,Sunday
213,250817916.1702223
6172,250351714.02151188
2,15, 1,15, 0,17, 0.00,60.00,Sunday
213,272166683.80485827