Program Version,EnergyPlus, Version 24.2.0-94a887817b, YMD=2025.04.10 17:22
1,5,Environment Title[],Latitude[deg],Longitude[deg],Time Zone[],Elevation[m]
2,8,Day of Simulation[],Month[],Day of Month[],DST Indicator[1=yes 0=no],Hour[],StartMinute[],EndMinute[],DayType
3,5,Cumulative Day of Simulation[],Month[],Day of Month[],DST Indicator[1=yes 0=no],DayType  ! When Daily Meters Requested
4,2,Cumulative Days of Simulation[],Month[]  ! When Monthly Meters Requested
5,1,Cumulative Days of Simulation[] ! When Run Period Meters Requested
6,1,Calendar Year of Simulation[] ! When Annual Meters Requested
226,1,InteriorLights:Electricity [J] !Hourly
1120,1,InteriorEquipment:Electricity [J] !Hourly
End of Data Dictionary
1,RUNPERIOD 1,  40.65, -73.80,  -5.00,   5.00
2,1, 1, 1, 0, 1, 0.00,60.00,Holiday
226,40512414.83143302
1120,107057102.65348656
2,1, 1, 1, 0, 2, 0.00,60.00,Holiday
226,40512414.83143302
1120,107057102.65348656
2,1, 1, 1, 0, 3, 0.00,60.00,Holiday
226,24434192.262496896
1120,96537163.26531492
2,1, 1, 1, 0, 4, 0.00,60.00,Holiday
226,24434192.262496896
1120,96537163.26531492
2,1, 1, 1, 0, 5, 0.00,60.00,Holiday
226,24434192.262496896
1120,96537163.26531492
2,1, 1, 1, 0, 6, 0.00,60.00,Holiday
226,24434192.262496896
1120,96537163.26531492
2,1, 1, 1, 0, 7, 0.00,60.00,Holiday
226,46608921.15890301
1120,181350902.47468653
2,1, 1, 1, 0, 8, 0.00,60.00,Holiday
226,55227195.089128606
1120,262733725.53365818
2,1, 1, 1, 0, 9, 0.00,60.00,Holiday
226,58972227.203694575
1120,309387410.2728582
2,1, 1, 1, 0,10, 0.00,60.00,Holiday
226,49713822.30700517
1120,252213786.14548656
2,1, 1, 1, 0,11, 0.00,60.00,Holiday
226,43511144.7479484
1120,170569837.85188654
2,1, 1, 1, 0,12, 0.00,60.00,Holiday
226,40259674.70663107
1120,170569837.85188654
2,1, 1, 1, 0,13, 0.00,60.00,Holiday
226,40289687.92875248
1120,170569837.85188654
2,1, 1, 1, 0,14, 0.00,60.00,Holiday
226,31570996.99498204
1120,160049898.46371493
2,1, 1, 1, 0,15, 0.00,60.00,Holiday
226,31459934.607884955
1120,160049898.46371493
2,1, 1, 1, 0,16, 0.00,60.00,Holiday
226,31712704.899096172
1120,160049898.46371493
2,1, 1, 1, 0,17, 0.00,60.00,Holiday
226,33123342.05656279
1120,173379522.67491493
2,1, 1, 1, 0,18, 0.00,60.00,Holiday
226,33375734.876119547
1120,205037380.1765149
2,1, 1, 1, 0,19, 0.00,60.00,Holiday
226,84455427.34183392
1120,249926822.55222982
2,1, 1, 1, 0,20, 0.00,60.00,Holiday
226,110515746.1240184
1120,267634295.27577314
2,1, 1, 1, 0,21, 0.00,60.00,Holiday
226,120497450.83823784
1120,304813483.0863448
2,1, 1, 1, 0,22, 0.00,60.00,Holiday
226,100533638.38352334
1120,295437025.49480146
2,1, 1, 1, 0,23, 0.00,60.00,Holiday
226,84455427.34183392
1120,226599980.18262976
2,1, 1, 1, 0,24, 0.00,60.00,Holiday
226,46608921.15890301
1120,177234649.95748654
2,2, 1, 2, 0, 1, 0.00,60.00,Monday
226,28904963.56930822
1120,96537163.26531492
2,2, 1, 2, 0, 2, 0.00,60.00,Monday
226,21882138.185889654
1120,91277193.57122909
2,2, 1, 2, 0, 3, 0.00,60.00,Monday
226,14452487.548277447
1120,86017223.8771433
2,2, 1, 2, 0, 4, 0.00,60.00,Monday
226,14452487.548277447
1120,86017223.8771433
2,2, 1, 2, 0, 5, 0.00,60.00,Monday
226,14452487.548277447
1120,86017223.8771433
2,2, 1, 2, 0, 6, 0.00,60.00,Monday
226,28904963.56930822
1120,96537163.26531492
2,2, 1, 2, 0, 7, 0.00,60.00,Monday
226,57809927.13861644
1120,245189338.7076582
2,2, 1, 2, 0, 8, 0.00,60.00,Monday
226,70940681.3263089
1120,319907349.6610299
2,2, 1, 2, 0, 9, 0.00,60.00,Monday
226,54002565.66029504
1120,231075868.03205818
2,2, 1, 2, 0,10, 0.00,60.00,Monday
226,53829594.29737287
1120,231075868.03205818
2,2, 1, 2, 0,11, 0.00,60.00,Monday
226,33753133.864458255
1120,163643665.13140076
2,2, 1, 2, 0,12, 0.00,60.00,Monday
226,33753133.864458255
1120,163643665.13140076
2,2, 1, 2, 0,13, 0.00,60.00,Monday
226,33753133.864458255
1120,163643665.13140076
2,2, 1, 2, 0,14, 0.00,60.00,Monday
226,33865761.978970215
1120,163643665.13140076
2,2, 1, 2, 0,15, 0.00,60.00,Monday
226,34090382.428574674
1120,163643665.13140076
2,2, 1, 2, 0,16, 0.00,60.00,Monday
226,34246442.05716514
1120,163643665.13140076
2,2, 1, 2, 0,17, 0.00,60.00,Monday
226,36045826.93885731
1120,175307086.31620073
2,2, 1, 2, 0,18, 0.00,60.00,Monday
226,36334614.20692044
1120,223626974.08180067
2,2, 1, 2, 0,19, 0.00,60.00,Monday
226,87121324.46308938
1120,260446761.94040146
2,2, 1, 2, 0,20, 0.00,60.00,Monday
226,116026679.5314265
1120,278154234.6639447
2,2, 1, 2, 0,21, 0.00,60.00,Monday
226,130479167.07970402
1120,310073452.7804306
2,2, 1, 2, 0,22, 0.00,60.00,Monday
226,116026679.5314265
1120,316476904.2711447
2,2, 1, 2, 0,23, 0.00,60.00,Monday
226,87121324.46308938
1120,237119919.57080144
2,2, 1, 2, 0,24, 0.00,60.00,Monday
226,43357451.11758568
1120,177234649.95748654
2,3, 1, 3, 0, 1, 0.00,60.00,Tuesday
226,28904963.56930822
1120,96537163.26531492
2,3, 1, 3, 0, 2, 0.00,60.00,Tuesday
226,21882138.185889654
1120,91277193.57122909
2,3, 1, 3, 0, 3, 0.00,60.00,Tuesday
226,14452487.548277447
1120,86017223.8771433
2,3, 1, 3, 0, 4, 0.00,60.00,Tuesday
226,14452487.548277447
1120,86017223.8771433
2,3, 1, 3, 0, 5, 0.00,60.00,Tuesday
226,14452487.548277447
1120,86017223.8771433
2,3, 1, 3, 0, 6, 0.00,60.00,Tuesday
226,28904963.56930822
1120,96537163.26531492
2,3, 1, 3, 0, 7, 0.00,60.00,Tuesday
226,57809927.13861644
1120,245189338.7076582
2,3, 1, 3, 0, 8, 0.00,60.00,Tuesday
226,72429440.52243845
1120,319907349.6610299
2,3, 1, 3, 0, 9, 0.00,60.00,Tuesday
226,56486960.13403855
1120,231075868.03205818
2,3, 1, 3, 0,10, 0.00,60.00,Tuesday
226,55351199.48141286
1120,231075868.03205818
2,3, 1, 3, 0,11, 0.00,60.00,Tuesday
226,34482532.74696603
1120,163643665.13140076
2,3, 1, 3, 0,12, 0.00,60.00,Tuesday
226,34424429.616575345
1120,163643665.13140076
2,3, 1, 3, 0,13, 0.00,60.00,Tuesday
226,34344323.70816626
1120,163643665.13140076
2,3, 1, 3, 0,14, 0.00,60.00,Tuesday
226,34507118.94191992
1120,163643665.13140076
2,3, 1, 3, 0,15, 0.00,60.00,Tuesday
226,34887876.666428745
1120,163643665.13140076
2,3, 1, 3, 0,16, 0.00,60.00,Tuesday
226,34947704.683755
1120,163643665.13140076
2,3, 1, 3, 0,17, 0.00,60.00,Tuesday
226,36207270.03886668
1120,175307086.31620073
2,3, 1, 3, 0,18, 0.00,60.00,Tuesday
226,36334614.20692044
1120,223626974.08180067
2,3, 1, 3, 0,19, 0.00,60.00,Tuesday
226,87121324.46308938
1120,260446761.94040146
2,3, 1, 3, 0,20, 0.00,60.00,Tuesday
226,116026679.5314265
1120,278154234.6639447
2,3, 1, 3, 0,21, 0.00,60.00,Tuesday
226,130479167.07970402
1120,310073452.7804306
2,3, 1, 3, 0,22, 0.00,60.00,Tuesday
226,116026679.5314265
1120,316476904.2711447
2,3, 1, 3, 0,23, 0.00,60.00,Tuesday
226,87121324.46308938
1120,237119919.57080144
2,3, 1, 3, 0,24, 0.00,60.00,Tuesday
226,43357451.11758568
1120,177234649.95748654
2,4, 1, 4, 0, 1, 0.00,60.00,Wednesday
226,28904963.56930822
1120,96537163.26531492
2,4, 1, 4, 0, 2, 0.00,60.00,Wednesday
226,21882138.185889654
1120,91277193.57122909
2,4, 1, 4, 0, 3, 0.00,60.00,Wednesday
226,14452487.548277447
1120,86017223.8771433
2,4, 1, 4, 0, 4, 0.00,60.00,Wednesday
226,14452487.548277447
1120,86017223.8771433
2,4, 1, 4, 0, 5, 0.00,60.00,Wednesday
226,14452487.548277447
1120,86017223.8771433
2,4, 1, 4, 0, 6, 0.00,60.00,Wednesday
226,28904963.56930822
1120,96537163.26531492
2,4, 1, 4, 0, 7, 0.00,60.00,Wednesday
226,57809927.13861644
1120,245189338.7076582
2,4, 1, 4, 0, 8, 0.00,60.00,Wednesday
226,71238120.81022617
1120,319907349.6610299
2,4, 1, 4, 0, 9, 0.00,60.00,Wednesday
226,54125826.67375765
1120,231075868.03205818
2,4, 1, 4, 0,10, 0.00,60.00,Wednesday
226,53712245.261569425
1120,231075868.03205818
2,4, 1, 4, 0,11, 0.00,60.00,Wednesday
226,33753133.864458255
1120,163643665.13140076
2,4, 1, 4, 0,12, 0.00,60.00,Wednesday
226,33753133.864458255
1120,163643665.13140076
2,4, 1, 4, 0,13, 0.00,60.00,Wednesday
226,33753133.864458255
1120,163643665.13140076
2,4, 1, 4, 0,14, 0.00,60.00,Wednesday
226,33753133.864458255
1120,163643665.13140076
2,4, 1, 4, 0,15, 0.00,60.00,Wednesday
226,33925842.970412254
1120,163643665.13140076
2,4, 1, 4, 0,16, 0.00,60.00,Wednesday
226,34146485.731803
1120,163643665.13140076
2,4, 1, 4, 0,17, 0.00,60.00,Wednesday
226,35874338.76334033
1120,175307086.31620073
2,4, 1, 4, 0,18, 0.00,60.00,Wednesday
226,36334614.20692044
1120,223626974.08180067
2,4, 1, 4, 0,19, 0.00,60.00,Wednesday
226,87121324.46308938
1120,260446761.94040146
2,4, 1, 4, 0,20, 0.00,60.00,Wednesday
226,116026679.5314265
1120,278154234.6639447
2,4, 1, 4, 0,21, 0.00,60.00,Wednesday
226,130479167.07970402
1120,310073452.7804306
2,4, 1, 4, 0,22, 0.00,60.00,Wednesday
226,116026679.5314265
1120,316476904.2711447
2,4, 1, 4, 0,23, 0.00,60.00,Wednesday
226,87121324.46308938
1120,237119919.57080144
2,4, 1, 4, 0,24, 0.00,60.00,Wednesday
226,43357451.11758568
1120,177234649.95748654
2,5, 1, 5, 0, 1, 0.00,60.00,Thursday
226,28904963.56930822
1120,96537163.26531492
2,5, 1, 5, 0, 2, 0.00,60.00,Thursday
226,21882138.185889654
1120,91277193.57122909
2,5, 1, 5, 0, 3, 0.00,60.00,Thursday
226,14452487.548277447
1120,86017223.8771433
2,5, 1, 5, 0, 4, 0.00,60.00,Thursday
226,14452487.548277447
1120,86017223.8771433
2,5, 1, 5, 0, 5, 0.00,60.00,Thursday
226,14452487.548277447
1120,86017223.8771433
2,5, 1, 5, 0, 6, 0.00,60.00,Thursday
226,28904963.56930822
1120,96537163.26531492
2,5, 1, 5, 0, 7, 0.00,60.00,Thursday
226,57809927.13861644
1120,245189338.7076582
2,5, 1, 5, 0, 8, 0.00,60.00,Thursday
226,70976203.16762644
1120,319907349.6610299
2,5, 1, 5, 0, 9, 0.00,60.00,Thursday
226,54106165.64384332
1120,231075868.03205818
2,5, 1, 5, 0,10, 0.00,60.00,Thursday
226,53757617.42705289
1120,231075868.03205818
2,5, 1, 5, 0,11, 0.00,60.00,Thursday
226,33753133.864458255
1120,163643665.13140076
2,5, 1, 5, 0,12, 0.00,60.00,Thursday
226,33753133.864458255
1120,163643665.13140076
2,5, 1, 5, 0,13, 0.00,60.00,Thursday
226,33753133.864458255
1120,163643665.13140076
2,5, 1, 5, 0,14, 0.00,60.00,Thursday
226,33860930.12825774
1120,163643665.13140076
2,5, 1, 5, 0,15, 0.00,60.00,Thursday
226,33910846.848519966
1120,163643665.13140076
2,5, 1, 5, 0,16, 0.00,60.00,Thursday
226,34139672.059755385
1120,163643665.13140076
2,5, 1, 5, 0,17, 0.00,60.00,Thursday
226,35920206.1699742
1120,175307086.31620073
2,5, 1, 5, 0,18, 0.00,60.00,Thursday
226,36334614.20692044
1120,223626974.08180067
2,5, 1, 5, 0,19, 0.00,60.00,Thursday
226,87121324.46308938
1120,260446761.94040146
2,5, 1, 5, 0,20, 0.00,60.00,Thursday
226,116026679.5314265
1120,278154234.6639447
2,5, 1, 5, 0,21, 0.00,60.00,Thursday
226,130479167.07970402
1120,310073452.7804306
2,5, 1, 5, 0,22, 0.00,60.00,Thursday
226,116026679.5314265
1120,316476904.2711447
2,5, 1, 5, 0,23, 0.00,60.00,Thursday
226,87121324.46308938
1120,237119919.57080144
2,5, 1, 5, 0,24, 0.00,60.00,Thursday
226,43357451.11758568
1120,177234649.95748654
2,6, 1, 6, 0, 1, 0.00,60.00,Friday
226,28904963.56930822
1120,96537163.26531492
2,6, 1, 6, 0, 2, 0.00,60.00,Friday
226,21882138.185889654
1120,91277193.57122909
2,6, 1, 6, 0, 3, 0.00,60.00,Friday
226,14452487.548277447
1120,86017223.8771433
2,6, 1, 6, 0, 4, 0.00,60.00,Friday
226,14452487.548277447
1120,86017223.8771433
2,6, 1, 6, 0, 5, 0.00,60.00,Friday
226,14452487.548277447
1120,86017223.8771433
2,6, 1, 6, 0, 6, 0.00,60.00,Friday
226,28904963.56930822
1120,96537163.26531492
2,6, 1, 6, 0, 7, 0.00,60.00,Friday
226,57809927.13861644
1120,245189338.7076582
2,6, 1, 6, 0, 8, 0.00,60.00,Friday
226,70961777.43246163
1120,319907349.6610299
2,6, 1, 6, 0, 9, 0.00,60.00,Friday
226,54084843.50130552
1120,231075868.03205818
2,6, 1, 6, 0,10, 0.00,60.00,Friday
226,53761065.16287056
1120,231075868.03205818
2,6, 1, 6, 0,11, 0.00,60.00,Friday
226,33753133.864458255
1120,163643665.13140076
2,6, 1, 6, 0,12, 0.00,60.00,Friday
226,33773358.026979685
1120,163643665.13140076
2,6, 1, 6, 0,13, 0.00,60.00,Friday
226,33921427.81410096
1120,163643665.13140076
2,6, 1, 6, 0,14, 0.00,60.00,Friday
226,34125107.26473362
1120,163643665.13140076
2,6, 1, 6, 0,15, 0.00,60.00,Friday
226,34619842.39350883
1120,163643665.13140076
2,6, 1, 6, 0,16, 0.00,60.00,Friday
226,34855115.91195957
1120,163643665.13140076
2,6, 1, 6, 0,17, 0.00,60.00,Friday
226,36032136.56530801
1120,175307086.31620073
2,6, 1, 6, 0,18, 0.00,60.00,Friday
226,36334614.20692044
1120,223626974.08180067
2,6, 1, 6, 0,19, 0.00,60.00,Friday
226,87121324.46308938
1120,260446761.94040146
2,6, 1, 6, 0,20, 0.00,60.00,Friday
226,116026679.5314265
1120,278154234.6639447
2,6, 1, 6, 0,21, 0.00,60.00,Friday
226,130479167.07970402
1120,310073452.7804306
2,6, 1, 6, 0,22, 0.00,60.00,Friday
226,116026679.5314265
1120,316476904.2711447
2,6, 1, 6, 0,23, 0.00,60.00,Friday
226,87121324.46308938
1120,237119919.57080144
2,6, 1, 6, 0,24, 0.00,60.00,Friday
226,43357451.11758568
1120,177234649.95748654
2,7, 1, 7, 0, 1, 0.00,60.00,Saturday
226,30530698.589966886
1120,96537163.26531492
2,7, 1, 7, 0, 2, 0.00,60.00,Saturday
226,30530698.589966886
1120,96537163.26531492
2,7, 1, 7, 0, 3, 0.00,60.00,Saturday
226,14452487.548277447
1120,86017223.8771433
2,7, 1, 7, 0, 4, 0.00,60.00,Saturday
226,14452487.548277447
1120,86017223.8771433
2,7, 1, 7, 0, 5, 0.00,60.00,Saturday
226,14452487.548277447
1120,86017223.8771433
2,7, 1, 7, 0, 6, 0.00,60.00,Saturday
226,14452487.548277447
1120,86017223.8771433
2,7, 1, 7, 0, 7, 0.00,60.00,Saturday
226,46608921.15890301
1120,181350902.47468653
2,7, 1, 7, 0, 8, 0.00,60.00,Saturday
226,45839043.64704922
1120,252213786.14548656
2,7, 1, 7, 0, 9, 0.00,60.00,Saturday
226,59009350.136697434
1120,309387410.2728582
2,7, 1, 7, 0,10, 0.00,60.00,Saturday
226,58588124.25007928
1120,262733725.53365818
2,7, 1, 7, 0,11, 0.00,60.00,Saturday
226,43511144.7479484
1120,170569837.85188654
2,7, 1, 7, 0,12, 0.00,60.00,Saturday
226,35785302.640281595
1120,165309868.15780073
2,7, 1, 7, 0,13, 0.00,60.00,Saturday
226,35785302.640281595
1120,165309868.15780073
2,7, 1, 7, 0,14, 0.00,60.00,Saturday
226,35846666.92126296
1120,165309868.15780073
2,7, 1, 7, 0,15, 0.00,60.00,Saturday
226,35956871.62189235
1120,165309868.15780073
2,7, 1, 7, 0,16, 0.00,60.00,Saturday
226,36148508.532841414
1120,165309868.15780073
2,7, 1, 7, 0,17, 0.00,60.00,Saturday
226,37964757.506376036
1120,178639492.36900073
2,7, 1, 7, 0,18, 0.00,60.00,Saturday
226,38366782.98274377
1120,210297349.87060076
2,7, 1, 7, 0,19, 0.00,60.00,Saturday
226,94437132.05605336
1120,260446761.94040146
2,7, 1, 7, 0,20, 0.00,60.00,Saturday
226,110515746.1240184
1120,267634295.27577314
2,7, 1, 7, 0,21, 0.00,60.00,Saturday
226,110515746.1240184
1120,294293543.6981731
2,7, 1, 7, 0,22, 0.00,60.00,Saturday
226,110515746.1240184
1120,305956964.88297313
2,7, 1, 7, 0,23, 0.00,60.00,Saturday
226,94437132.05605336
1120,237119919.57080144
2,7, 1, 7, 0,24, 0.00,60.00,Saturday
226,46608921.15890301
1120,177234649.95748654
2,8, 1, 8, 0, 1, 0.00,60.00,Sunday
226,40512414.83143302
1120,107057102.65348656
2,8, 1, 8, 0, 2, 0.00,60.00,Sunday
226,40512414.83143302
1120,107057102.65348656
2,8, 1, 8, 0, 3, 0.00,60.00,Sunday
226,24434192.262496896
1120,96537163.26531492
2,8, 1, 8, 0, 4, 0.00,60.00,Sunday
226,24434192.262496896
1120,96537163.26531492
2,8, 1, 8, 0, 5, 0.00,60.00,Sunday
226,24434192.262496896
1120,96537163.26531492
2,8, 1, 8, 0, 6, 0.00,60.00,Sunday
226,24434192.262496896
1120,96537163.26531492
2,8, 1, 8, 0, 7, 0.00,60.00,Sunday
226,46608921.15890301
1120,181350902.47468653
2,8, 1, 8, 0, 8, 0.00,60.00,Sunday
226,56189507.68574351
1120,262733725.53365818
2,8, 1, 8, 0, 9, 0.00,60.00,Sunday
226,59834100.85985923
1120,309387410.2728582
2,8, 1, 8, 0,10, 0.00,60.00,Sunday
226,49852665.01522509
1120,252213786.14548656
2,8, 1, 8, 0,11, 0.00,60.00,Sunday
226,43955752.093996
1120,170569837.85188654
2,8, 1, 8, 0,12, 0.00,60.00,Sunday
226,40871725.10548308
1120,170569837.85188654
2,8, 1, 8, 0,13, 0.00,60.00,Sunday
226,40948573.75470832
1120,170569837.85188654
2,8, 1, 8, 0,14, 0.00,60.00,Sunday
226,31906905.493534904
1120,160049898.46371493
2,8, 1, 8, 0,15, 0.00,60.00,Sunday
226,32219001.226947278
1120,160049898.46371493
2,8, 1, 8, 0,16, 0.00,60.00,Sunday
226,32776296.10779025
1120,160049898.46371493
2,8, 1, 8, 0,17, 0.00,60.00,Sunday
226,33322103.871279754
1120,173379522.67491493
2,8, 1, 8, 0,18, 0.00,60.00,Sunday
226,33375734.876119547
1120,205037380.1765149
2,8, 1, 8, 0,19, 0.00,60.00,Sunday
226,84455427.34183392
1120,249926822.55222982
2,8, 1, 8, 0,20, 0.00,60.00,Sunday
226,110515746.1240184
1120,267634295.27577314
2,8, 1, 8, 0,21, 0.00,60.00,Sunday
226,120497450.83823784
1120,304813483.0863448
2,8, 1, 8, 0,22, 0.00,60.00,Sunday
226,100533638.38352334
1120,295437025.49480146
2,8, 1, 8, 0,23, 0.00,60.00,Sunday
226,84455427.34183392
1120,226599980.18262976
2,8, 1, 8, 0,24, 0.00,60.00,Sunday
226,46608921.15890301
1120,177234649.95748654
2,9, 1, 9, 0, 1, 0.00,60.00,Monday
226,28904963.56930822
1120,96537163.26531492
2,9, 1, 9, 0, 2, 0.00,60.00,Monday
226,21882138.185889654
1120,91277193.57122909
2,9, 1, 9, 0, 3, 0.00,60.00,Monday
226,14452487.548277447
1120,86017223.8771433
2,9, 1, 9, 0, 4, 0.00,60.00,Monday
226,14452487.548277447
1120,86017223.8771433
2,9, 1, 9, 0, 5, 0.00,60.00,Monday
226,14452487.548277447
1120,86017223.8771433
2,9, 1, 9, 0, 6, 0.00,60.00,Monday
226,28904963.56930822
1120,96537163.26531492
2,9, 1, 9, 0, 7, 0.00,60.00,Monday
226,57809927.13861644
1120,245189338.7076582
2,9, 1, 9, 0, 8, 0.00,60.00,Monday
226,71881057.727997
1120,319907349.6610299
2,9, 1, 9, 0, 9, 0.00,60.00,Monday
226,54484996.24826137
1120,231075868.03205818
2,9, 1, 9, 0,10, 0.00,60.00,Monday
226,53986611.5760323
1120,231075868.03205818
2,9, 1, 9, 0,11, 0.00,60.00,Monday
226,33915635.515741885
1120,163643665.13140076
2,9, 1, 9, 0,12, 0.00,60.00,Monday
226,33811361.61650155
1120,163643665.13140076
2,9, 1, 9, 0,13, 0.00,60.00,Monday
226,33906700.38840779
1120,163643665.13140076
2,9, 1, 9, 0,14, 0.00,60.00,Monday
226,33876519.83649935
1120,163643665.13140076
2,9, 1, 9, 0,15, 0.00,60.00,Monday
226,34321848.169631734
1120,163643665.13140076
2,9, 1, 9, 0,16, 0.00,60.00,Monday
226,35396846.94628374
1120,163643665.13140076
2,9, 1, 9, 0,17, 0.00,60.00,Monday
226,36236490.2664028
1120,175307086.31620073
2,9, 1, 9, 0,18, 0.00,60.00,Monday
226,36334614.20692044
1120,223626974.08180067
2,9, 1, 9, 0,19, 0.00,60.00,Monday
226,87121324.46308938
1120,260446761.94040146
2,9, 1, 9, 0,20, 0.00,60.00,Monday
226,116026679.5314265
1120,278154234.6639447
2,9, 1, 9, 0,21, 0.00,60.00,Monday
226,130479167.07970402
1120,310073452.7804306
2,9, 1, 9, 0,22, 0.00,60.00,Monday
226,116026679.5314265
1120,316476904.2711447
2,9, 1, 9, 0,23, 0.00,60.00,Monday
226,87121324.46308938
1120,237119919.57080144
2,9, 1, 9, 0,24, 0.00,60.00,Monday
226,43357451.11758568
1120,177234649.95748654
2,10, 1,10, 0, 1, 0.00,60.00,Tuesday
226,28904963.56930822
1120,96537163.26531492
2,10, 1,10, 0, 2, 0.00,60.00,Tuesday
226,21882138.185889654
1120,91277193.57122909
2,10, 1,10, 0, 3, 0.00,60.00,Tuesday
226,14452487.548277447
1120,86017223.8771433
2,10, 1,10, 0, 4, 0.00,60.00,Tuesday
226,14452487.548277447
1120,86017223.8771433
2,10, 1,10, 0, 5, 0.00,60.00,Tuesday
226,14452487.548277447
1120,86017223.8771433
2,10, 1,10, 0, 6, 0.00,60.00,Tuesday
226,28904963.56930822
1120,96537163.26531492
2,10, 1,10, 0, 7, 0.00,60.00,Tuesday
226,57809927.13861644
1120,245189338.7076582
2,10, 1,10, 0, 8, 0.00,60.00,Tuesday
226,70869049.26328
1120,319907349.6610299
2,10, 1,10, 0, 9, 0.00,60.00,Tuesday
226,53967159.903014496
1120,231075868.03205818
2,10, 1,10, 0,10, 0.00,60.00,Tuesday
226,53714912.909384325
1120,231075868.03205818
2,10, 1,10, 0,11, 0.00,60.00,Tuesday
226,33882588.12730969
1120,163643665.13140076
2,10, 1,10, 0,12, 0.00,60.00,Tuesday
226,33753133.864458255
1120,163643665.13140076
2,10, 1,10, 0,13, 0.00,60.00,Tuesday
226,33753133.864458255
1120,163643665.13140076
2,10, 1,10, 0,14, 0.00,60.00,Tuesday
226,33838835.66676975
1120,163643665.13140076
2,10, 1,10, 0,15, 0.00,60.00,Tuesday
226,33915059.05933655
1120,163643665.13140076
2,10, 1,10, 0,16, 0.00,60.00,Tuesday
226,34087064.7418943
1120,163643665.13140076
2,10, 1,10, 0,17, 0.00,60.00,Tuesday
226,35661045.44167185
1120,175307086.31620073
2,10, 1,10, 0,18, 0.00,60.00,Tuesday
226,36334614.20692044
1120,223626974.08180067
2,10, 1,10, 0,19, 0.00,60.00,Tuesday
226,87121324.46308938
1120,260446761.94040146
2,10, 1,10, 0,20, 0.00,60.00,Tuesday
226,116026679.5314265
1120,278154234.6639447
2,10, 1,10, 0,21, 0.00,60.00,Tuesday
226,130479167.07970402
1120,310073452.7804306
2,10, 1,10, 0,22, 0.00,60.00,Tuesday
226,116026679.5314265
1120,316476904.2711447
2,10, 1,10, 0,23, 0.00,60.00,Tuesday
226,87121324.46308938
1120,237119919.57080144
2,10, 1,10, 0,24, 0.00,60.00,Tuesday
226,43357451.11758568
1120,177234649.95748654
2,11, 1,11, 0, 1, 0.00,60.00,Wednesday
226,28904963.56930822
1120,96537163.26531492
2,11, 1,11, 0, 2, 0.00,60.00,Wednesday
226,21882138.185889654
1120,91277193.57122909
2,11, 1,11, 0, 3, 0.00,60.00,Wednesday
226,14452487.548277447
1120,86017223.8771433
2,11, 1,11, 0, 4, 0.00,60.00,Wednesday
226,14452487.548277447
1120,86017223.8771433
2,11, 1,11, 0, 5, 0.00,60.00,Wednesday
226,14452487.548277447
1120,86017223.8771433
2,11, 1,11, 0, 6, 0.00,60.00,Wednesday
226,28904963.56930822
1120,96537163.26531492
2,11, 1,11, 0, 7, 0.00,60.00,Wednesday
226,57809927.13861644
1120,245189338.7076582
2,11, 1,11, 0, 8, 0.00,60.00,Wednesday
226,70845739.97620042
1120,319907349.6610299
2,11, 1,11, 0, 9, 0.00,60.00,Wednesday
226,53968984.92132708
1120,231075868.03205818
2,11, 1,11, 0,10, 0.00,60.00,Wednesday
226,53679558.59067696
1120,231075868.03205818
2,11, 1,11, 0,11, 0.00,60.00,Wednesday
226,33870025.30180558
1120,163643665.13140076
2,11, 1,11, 0,12, 0.00,60.00,Wednesday
226,33872027.289390445
1120,163643665.13140076
2,11, 1,11, 0,13, 0.00,60.00,Wednesday
226,33753133.864458255
1120,163643665.13140076
2,11, 1,11, 0,14, 0.00,60.00,Wednesday
226,33753133.864458255
1120,163643665.13140076
2,11, 1,11, 0,15, 0.00,60.00,Wednesday
226,33912339.400030926
1120,163643665.13140076
2,11, 1,11, 0,16, 0.00,60.00,Wednesday
226,34095921.3319142
1120,163643665.13140076
2,11, 1,11, 0,17, 0.00,60.00,Wednesday
226,35639073.93851667
1120,175307086.31620073
2,11, 1,11, 0,18, 0.00,60.00,Wednesday
226,36334614.20692044
1120,223626974.08180067
2,11, 1,11, 0,19, 0.00,60.00,Wednesday
226,87121324.46308938
1120,260446761.94040146
2,11, 1,11, 0,20, 0.00,60.00,Wednesday
226,116026679.5314265
1120,278154234.6639447
2,11, 1,11, 0,21, 0.00,60.00,Wednesday
226,130479167.07970402
1120,310073452.7804306
2,11, 1,11, 0,22, 0.00,60.00,Wednesday
226,116026679.5314265
1120,316476904.2711447
2,11, 1,11, 0,23, 0.00,60.00,Wednesday
226,87121324.46308938
1120,237119919.57080144
2,11, 1,11, 0,24, 0.00,60.00,Wednesday
226,43357451.11758568
1120,177234649.95748654
2,12, 1,12, 0, 1, 0.00,60.00,Thursday
226,28904963.56930822
1120,96537163.26531492
2,12, 1,12, 0, 2, 0.00,60.00,Thursday
226,21882138.185889654
1120,91277193.57122909
2,12, 1,12, 0, 3, 0.00,60.00,Thursday
226,14452487.548277447
1120,86017223.8771433
2,12, 1,12, 0, 4, 0.00,60.00,Thursday
226,14452487.548277447
1120,86017223.8771433
2,12, 1,12, 0, 5, 0.00,60.00,Thursday
226,14452487.548277447
1120,86017223.8771433
2,12, 1,12, 0, 6, 0.00,60.00,Thursday
226,28904963.56930822
1120,96537163.26531492
2,12, 1,12, 0, 7, 0.00,60.00,Thursday
226,57809927.13861644
1120,245189338.7076582
2,12, 1,12, 0, 8, 0.00,60.00,Thursday
226,72169467.46292746
1120,319907349.6610299
2,12, 1,12, 0, 9, 0.00,60.00,Thursday
226,54992523.3876147
1120,231075868.03205818
2,12, 1,12, 0,10, 0.00,60.00,Thursday
226,53930667.4377619
1120,231075868.03205818
2,12, 1,12, 0,11, 0.00,60.00,Thursday
226,33753133.864458255
1120,163643665.13140076
2,12, 1,12, 0,12, 0.00,60.00,Thursday
226,33753133.864458255
1120,163643665.13140076
2,12, 1,12, 0,13, 0.00,60.00,Thursday
226,33753133.864458255
1120,163643665.13140076
2,12, 1,12, 0,14, 0.00,60.00,Thursday
226,33772015.35155615
1120,163643665.13140076
2,12, 1,12, 0,15, 0.00,60.00,Thursday
226,33911574.860043764
1120,163643665.13140076
2,12, 1,12, 0,16, 0.00,60.00,Thursday
226,33984535.79787927
1120,163643665.13140076
2,12, 1,12, 0,17, 0.00,60.00,Thursday
226,35585048.51635112
1120,175307086.31620073
2,12, 1,12, 0,18, 0.00,60.00,Thursday
226,36334614.20692044
1120,223626974.08180067
2,12, 1,12, 0,19, 0.00,60.00,Thursday
226,87121324.46308938
1120,260446761.94040146
2,12, 1,12, 0,20, 0.00,60.00,Thursday
226,116026679.5314265
1120,278154234.6639447
2,12, 1,12, 0,21, 0.00,60.00,Thursday
226,130479167.07970402
1120,310073452.7804306
2,12, 1,12, 0,22, 0.00,60.00,Thursday
226,116026679.5314265
1120,316476904.2711447
2,12, 1,12, 0,23, 0.00,60.00,Thursday
226,87121324.46308938
1120,237119919.57080144
2,12, 1,12, 0,24, 0.00,60.00,Thursday
226,43357451.11758568
1120,177234649.95748654
2,13, 1,13, 0, 1, 0.00,60.00,Friday
226,28904963.56930822
1120,96537163.26531492
2,13, 1,13, 0, 2, 0.00,60.00,Friday
226,21882138.185889654
1120,91277193.57122909
2,13, 1,13, 0, 3, 0.00,60.00,Friday
226,14452487.548277447
1120,86017223.8771433
2,13, 1,13, 0, 4, 0.00,60.00,Friday
226,14452487.548277447
1120,86017223.8771433
2,13, 1,13, 0, 5, 0.00,60.00,Friday
226,14452487.548277447
1120,86017223.8771433
2,13, 1,13, 0, 6, 0.00,60.00,Friday
226,28904963.56930822
1120,96537163.26531492
2,13, 1,13, 0, 7, 0.00,60.00,Friday
226,57809927.13861644
1120,245189338.7076582
2,13, 1,13, 0, 8, 0.00,60.00,Friday
226,71963228.33676386
1120,319907349.6610299
2,13, 1,13, 0, 9, 0.00,60.00,Friday
226,54634036.5709307
1120,231075868.03205818
2,13, 1,13, 0,10, 0.00,60.00,Friday
226,53976605.282422915
1120,231075868.03205818
2,13, 1,13, 0,11, 0.00,60.00,Friday
226,33904078.86502788
1120,163643665.13140076
2,13, 1,13, 0,12, 0.00,60.00,Friday
226,33883020.81310723
1120,163643665.13140076
2,13, 1,13, 0,13, 0.00,60.00,Friday
226,33893287.54828042
1120,163643665.13140076
2,13, 1,13, 0,14, 0.00,60.00,Friday
226,34087935.653058924
1120,163643665.13140076
2,13, 1,13, 0,15, 0.00,60.00,Friday
226,34012217.433495715
1120,163643665.13140076
2,13, 1,13, 0,16, 0.00,60.00,Friday
226,34589859.26239309
1120,163643665.13140076
2,13, 1,13, 0,17, 0.00,60.00,Friday
226,36151013.041457176
1120,175307086.31620073
2,13, 1,13, 0,18, 0.00,60.00,Friday
226,36334614.20692044
1120,223626974.08180067
2,13, 1,13, 0,19, 0.00,60.00,Friday
226,87121324.46308938
1120,260446761.94040146
2,13, 1,13, 0,20, 0.00,60.00,Friday
226,116026679.5314265
1120,278154234.6639447
2,13, 1,13, 0,21, 0.00,60.00,Friday
226,130479167.07970402
1120,310073452.7804306
2,13, 1,13, 0,22, 0.00,60.00,Friday
226,116026679.5314265
1120,316476904.2711447
2,13, 1,13, 0,23, 0.00,60.00,Friday
226,87121324.46308938
1120,237119919.57080144
2,13, 1,13, 0,24, 0.00,60.00,Friday
226,43357451.11758568
1120,177234649.95748654
2,14, 1,14, 0, 1, 0.00,60.00,Saturday
226,30530698.589966886
1120,96537163.26531492
2,14, 1,14, 0, 2, 0.00,60.00,Saturday
226,30530698.589966886
1120,96537163.26531492
2,14, 1,14, 0, 3, 0.00,60.00,Saturday
226,14452487.548277447
1120,86017223.8771433
2,14, 1,14, 0, 4, 0.00,60.00,Saturday
226,14452487.548277447
1120,86017223.8771433
2,14, 1,14, 0, 5, 0.00,60.00,Saturday
226,14452487.548277447
1120,86017223.8771433
2,14, 1,14, 0, 6, 0.00,60.00,Saturday
226,14452487.548277447
1120,86017223.8771433
2,14, 1,14, 0, 7, 0.00,60.00,Saturday
226,46608921.15890301
1120,181350902.47468653
2,14, 1,14, 0, 8, 0.00,60.00,Saturday
226,45971537.53063951
1120,252213786.14548656
2,14, 1,14, 0, 9, 0.00,60.00,Saturday
226,59124918.67630692
1120,309387410.2728582
2,14, 1,14, 0,10, 0.00,60.00,Saturday
226,59050857.47150385
1120,262733725.53365818
2,14, 1,14, 0,11, 0.00,60.00,Saturday
226,44300190.584560946
1120,170569837.85188654
2,14, 1,14, 0,12, 0.00,60.00,Saturday
226,36373272.49112607
1120,165309868.15780073
2,14, 1,14, 0,13, 0.00,60.00,Saturday
226,36302526.80792612
1120,165309868.15780073
2,14, 1,14, 0,14, 0.00,60.00,Saturday
226,36478625.81131267
1120,165309868.15780073
2,14, 1,14, 0,15, 0.00,60.00,Saturday
226,36799747.28200316
1120,165309868.15780073
2,14, 1,14, 0,16, 0.00,60.00,Saturday
226,37131179.48221518
1120,165309868.15780073
2,14, 1,14, 0,17, 0.00,60.00,Saturday
226,38213372.6472437
1120,178639492.36900073
2,14, 1,14, 0,18, 0.00,60.00,Saturday
226,38366782.98274377
1120,210297349.87060076
2,14, 1,14, 0,19, 0.00,60.00,Saturday
226,94437132.05605336
1120,260446761.94040146
2,14, 1,14, 0,20, 0.00,60.00,Saturday
226,110515746.1240184
1120,267634295.27577314
2,14, 1,14, 0,21, 0.00,60.00,Saturday
226,110515746.1240184
1120,294293543.6981731
2,14, 1,14, 0,22, 0.00,60.00,Saturday
226,110515746.1240184
1120,305956964.88297313
2,14, 1,14, 0,23, 0.00,60.00,Saturday
226,94437132.05605336
1120,237119919.57080144
2,14, 1,14, 0,24, 0.00,60.00,Saturday
226,46608921.15890301
1120,177234649.95748654
2,15, 1,15, 0, 1, 0.00,60.00,Sunday
226,40512414.83143302
1120,107057102.65348656
2,15, 1,15, 0, 2, 0.00,60.00,Sunday
226,40512414.83143302
1120,107057102.65348656
2,15, 1,15, 0, 3, 0.00,60.00,Sunday
226,24434192.262496896
1120,96537163.26531492
2,15, 1,15, 0, 4, 0.00,60.00,Sunday
226,24434192.262496896
1120,96537163.26531492
2,15, 1,15, 0, 5, 0.00,60.00,Sunday
226,24434192.262496896
1120,96537163.26531492
2,15, 1,15, 0, 6, 0.00,60.00,Sunday
226,24434192.262496896
1120,96537163.26531492
2,15, 1,15, 0, 7, 0.00,60.00,Sunday
226,46608921.15890301
1120,181350902.47468653
2,15, 1,15, 0, 8, 0.00,60.00,Sunday
226,56325931.35844274
1120,262733725.53365818
2,15, 1,15, 0, 9, 0.00,60.00,Sunday
226,61047496.03381049
1120,309387410.2728582
2,15, 1,15, 0,10, 0.00,60.00,Sunday
226,50843047.765309885
1120,252213786.14548656
2,15, 1,15, 0,11, 0.00,60.00,Sunday
226,44380470.13278536
1120,170569837.85188654
2,15, 1,15, 0,12, 0.00,60.00,Sunday
226,40816748.39388257
1120,170569837.85188654
2,15, 1,15, 0,13, 0.00,60.00,Sunday
226,40338681.90961176
1120,170569837.85188654
2,15, 1,15, 0,14, 0.00,60.00,Sunday
226,31428878.7960001
1120,160049898.46371493
2,15, 1,15, 0,15, 0.00,60.00,Sunday
226,31476419.957262307
1120,160049898.46371493
2,15, 1,15, 0,16, 0.00,60.00,Sunday
226,31504987.922918793
1120,160049898.46371493
2,15, 1,15, 0,17, 0.00,60.00,Sunday
226,32860961.010799028
1120,173379522.67491493
2,15, 1,15, 0,18, 0.00,60.00,Sunday
226,33375734.876119547
1120,205037380.1765149
2,15, 1,15, 0,19, 0.00,60.00,Sunday
226,84455427.34183392
1120,249926822.55222982