Program Version,EnergyPlus, Version 24.2.0-94a887817b, YMD=2025.05.07 11:09
1,5,Environment Title[],Latitude[deg],Longitude[deg],Time Zone[],Elevation[m]
2,8,Day of Simulation[],Month[],Day of Month[],DST Indicator[1=yes 0=no],Hour[],StartMinute[],EndMinute[],DayType
3,5,Cumulative Day of Simulation[],Month[],Day of Month[],DST Indicator[1=yes 0=no],DayType  ! When Daily Meters Requested
4,2,Cumulative Days of Simulation[],Month[]  ! When Monthly Meters Requested
5,1,Cumulative Days of Simulation[] ! When Run Period Meters Requested
6,1,Calendar Year of Simulation[] ! When Annual Meters Requested
218,1,InteriorLights:Electricity [J] !Hourly
1050,1,InteriorEquipment:Electricity [J] !Hourly
End of Data Dictionary
1,RUNPERIOD 1,  40.65, -73.80,  -5.00,   5.00
2,1, 1, 1, 0, 1, 0.00,60.00,Holiday
218,33943474.903407015
1050,746122165.6661776
2,1, 1, 1, 0, 2, 0.00,60.00,Holiday
218,33943474.903407015
1050,746122165.6661776
2,1, 1, 1, 0, 3, 0.00,60.00,Holiday
218,33943474.903407015
1050,746122165.6661776
2,1, 1, 1, 0, 4, 0.00,60.00,Holiday
218,33943474.903407015
1050,746122165.6661776
2,1, 1, 1, 0, 5, 0.00,60.00,Holiday
218,33943474.903407015
1050,746122165.6661776
2,1, 1, 1, 0, 6, 0.00,60.00,Holiday
218,33943474.903407015
1050,746122165.6661776
2,1, 1, 1, 0, 7, 0.00,60.00,Holiday
218,33943474.903407015
1050,824394452.0555365
2,1, 1, 1, 0, 8, 0.00,60.00,Holiday
218,32259338.035202328
1050,824394452.0555365
2,1, 1, 1, 0, 9, 0.00,60.00,Holiday
218,29271287.44597944
1050,824394452.0555365
2,1, 1, 1, 0,10, 0.00,60.00,Holiday
218,29196626.950566977
1050,824394452.0555365
2,1, 1, 1, 0,11, 0.00,60.00,Holiday
218,29196626.950566977
1050,824394452.0555365
2,1, 1, 1, 0,12, 0.00,60.00,Holiday
218,29196626.950566977
1050,824394452.0555365
2,1, 1, 1, 0,13, 0.00,60.00,Holiday
218,29196626.950566977
1050,824394452.0555365
2,1, 1, 1, 0,14, 0.00,60.00,Holiday
218,29319025.508365937
1050,824394452.0555365
2,1, 1, 1, 0,15, 0.00,60.00,Holiday
218,29197723.2942106
1050,824394452.0555365
2,1, 1, 1, 0,16, 0.00,60.00,Holiday
218,29726625.55321654
1050,824394452.0555365
2,1, 1, 1, 0,17, 0.00,60.00,Holiday
218,33176033.566958673
1050,824394452.0555365
2,1, 1, 1, 0,18, 0.00,60.00,Holiday
218,33943474.903407015
1050,824394452.0555365
2,1, 1, 1, 0,19, 0.00,60.00,Holiday
218,33943474.903407015
1050,746122165.6661776
2,1, 1, 1, 0,20, 0.00,60.00,Holiday
218,33943474.903407015
1050,746122165.6661776
2,1, 1, 1, 0,21, 0.00,60.00,Holiday
218,33943474.903407015
1050,746122165.6661776
2,1, 1, 1, 0,22, 0.00,60.00,Holiday
218,33943474.903407015
1050,746122165.6661776
2,1, 1, 1, 0,23, 0.00,60.00,Holiday
218,33943474.903407015
1050,746122165.6661776
2,1, 1, 1, 0,24, 0.00,60.00,Holiday
218,33943474.903407015
1050,746122165.6661776
2,2, 1, 2, 0, 1, 0.00,60.00,Monday
218,33943474.903407015
1050,836730825.2177298
2,2, 1, 2, 0, 2, 0.00,60.00,Monday
218,33943474.903407015
1050,836730825.2177298
2,2, 1, 2, 0, 3, 0.00,60.00,Monday
218,33943474.903407015
1050,836730825.2177298
2,2, 1, 2, 0, 4, 0.00,60.00,Monday
218,33943474.903407015
1050,836730825.2177298
2,2, 1, 2, 0, 5, 0.00,60.00,Monday
218,33943474.903407015
1050,836730825.2177298
2,2, 1, 2, 0, 6, 0.00,60.00,Monday
218,41984535.820733696
1050,836730825.2177298
2,2, 1, 2, 0, 7, 0.00,60.00,Monday
218,62706410.468951315
1050,941093873.7368754
2,2, 1, 2, 0, 8, 0.00,60.00,Monday
218,192792322.9921379
1050,941093873.7368754
2,2, 1, 2, 0, 9, 0.00,60.00,Monday
218,526198736.5583921
1050,1524590982.1435692
2,2, 1, 2, 0,10, 0.00,60.00,Monday
218,525554010.37144583
1050,1524590982.1435692
2,2, 1, 2, 0,11, 0.00,60.00,Monday
218,525554010.37144583
1050,1524590982.1435692
2,2, 1, 2, 0,12, 0.00,60.00,Monday
218,525554010.37144583
1050,1524590982.1435692
2,2, 1, 2, 0,13, 0.00,60.00,Monday
218,525554010.37144583
1050,1407891560.4622302
2,2, 1, 2, 0,14, 0.00,60.00,Monday
218,525554010.37144583
1050,1524590982.1435692
2,2, 1, 2, 0,15, 0.00,60.00,Monday
218,528530540.3821049
1050,1524590982.1435692
2,2, 1, 2, 0,16, 0.00,60.00,Monday
218,535343787.2838645
1050,1524590982.1435692
2,2, 1, 2, 0,17, 0.00,60.00,Monday
218,598808872.8245425
1050,1524590982.1435692
2,2, 1, 2, 0,18, 0.00,60.00,Monday
218,339443317.00842553
1050,1057793295.4182142
2,2, 1, 2, 0,19, 0.00,60.00,Monday
218,203669488.0706059
1050,941093873.7368754
2,2, 1, 2, 0,20, 0.00,60.00,Monday
218,203669488.0706059
1050,941093873.7368754
2,2, 1, 2, 0,21, 0.00,60.00,Monday
218,135773828.93781975
1050,941093873.7368754
2,2, 1, 2, 0,22, 0.00,60.00,Monday
218,135773828.93781975
1050,941093873.7368754
2,2, 1, 2, 0,23, 0.00,60.00,Monday
218,67886879.13100572
1050,941093873.7368754
2,2, 1, 2, 0,24, 0.00,60.00,Monday
218,33943474.903407015
1050,941093873.7368754
2,3, 1, 3, 0, 1, 0.00,60.00,Tuesday
218,33943474.903407015
1050,836730825.2177298
2,3, 1, 3, 0, 2, 0.00,60.00,Tuesday
218,33943474.903407015
1050,836730825.2177298
2,3, 1, 3, 0, 3, 0.00,60.00,Tuesday
218,33943474.903407015
1050,836730825.2177298
2,3, 1, 3, 0, 4, 0.00,60.00,Tuesday
218,33943474.903407015
1050,836730825.2177298
2,3, 1, 3, 0, 5, 0.00,60.00,Tuesday
218,33943474.903407015
1050,836730825.2177298
2,3, 1, 3, 0, 6, 0.00,60.00,Tuesday
218,41984535.820733696
1050,836730825.2177298
2,3, 1, 3, 0, 7, 0.00,60.00,Tuesday
218,62706410.468951315
1050,941093873.7368754
2,3, 1, 3, 0, 8, 0.00,60.00,Tuesday
218,201768242.3950284
1050,941093873.7368754
2,3, 1, 3, 0, 9, 0.00,60.00,Tuesday
218,572625735.3942667
1050,1524590982.1435692
2,3, 1, 3, 0,10, 0.00,60.00,Tuesday
218,540365998.5370159
1050,1524590982.1435692
2,3, 1, 3, 0,11, 0.00,60.00,Tuesday
218,534223456.806787
1050,1524590982.1435692
2,3, 1, 3, 0,12, 0.00,60.00,Tuesday
218,532377921.9804777
1050,1524590982.1435692
2,3, 1, 3, 0,13, 0.00,60.00,Tuesday
218,530949611.77329004
1050,1407891560.4622302
2,3, 1, 3, 0,14, 0.00,60.00,Tuesday
218,534792891.7979661
1050,1524590982.1435692
2,3, 1, 3, 0,15, 0.00,60.00,Tuesday
218,542727659.5545512
1050,1524590982.1435692
2,3, 1, 3, 0,16, 0.00,60.00,Tuesday
218,546623520.4980817
1050,1524590982.1435692
2,3, 1, 3, 0,17, 0.00,60.00,Tuesday
218,605021031.483588
1050,1524590982.1435692
2,3, 1, 3, 0,18, 0.00,60.00,Tuesday
218,339443317.00842553
1050,1057793295.4182142
2,3, 1, 3, 0,19, 0.00,60.00,Tuesday
218,203669488.0706059
1050,941093873.7368754
2,3, 1, 3, 0,20, 0.00,60.00,Tuesday
218,203669488.0706059
1050,941093873.7368754
2,3, 1, 3, 0,21, 0.00,60.00,Tuesday
218,135773828.93781975
1050,941093873.7368754
2,3, 1, 3, 0,22, 0.00,60.00,Tuesday
218,135773828.93781975
1050,941093873.7368754
2,3, 1, 3, 0,23, 0.00,60.00,Tuesday
218,67886879.13100572
1050,941093873.7368754
2,3, 1, 3, 0,24, 0.00,60.00,Tuesday
218,33943474.903407015
1050,941093873.7368754
2,4, 1, 4, 0, 1, 0.00,60.00,Wednesday
218,33943474.903407015
1050,836730825.2177298
2,4, 1, 4, 0, 2, 0.00,60.00,Wednesday
218,33943474.903407015
1050,836730825.2177298
2,4, 1, 4, 0, 3, 0.00,60.00,Wednesday
218,33943474.903407015
1050,836730825.2177298
2,4, 1, 4, 0, 4, 0.00,60.00,Wednesday
218,33943474.903407015
1050,836730825.2177298
2,4, 1, 4, 0, 5, 0.00,60.00,Wednesday
218,33943474.903407015
1050,836730825.2177298
2,4, 1, 4, 0, 6, 0.00,60.00,Wednesday
218,41984535.820733696
1050,836730825.2177298
2,4, 1, 4, 0, 7, 0.00,60.00,Wednesday
218,62706410.468951315
1050,941093873.7368754
2,4, 1, 4, 0, 8, 0.00,60.00,Wednesday
218,194725270.32700592
1050,941093873.7368754
2,4, 1, 4, 0, 9, 0.00,60.00,Wednesday
218,527715514.17577964
1050,1524590982.1435692
2,4, 1, 4, 0,10, 0.00,60.00,Wednesday
218,525554010.37144583
1050,1524590982.1435692
2,4, 1, 4, 0,11, 0.00,60.00,Wednesday
218,525554010.37144583
1050,1524590982.1435692
2,4, 1, 4, 0,12, 0.00,60.00,Wednesday
218,525554010.37144583
1050,1524590982.1435692
2,4, 1, 4, 0,13, 0.00,60.00,Wednesday
218,525554010.37144583
1050,1407891560.4622302
2,4, 1, 4, 0,14, 0.00,60.00,Wednesday
218,525554010.37144583
1050,1524590982.1435692
2,4, 1, 4, 0,15, 0.00,60.00,Wednesday
218,525554010.37144583
1050,1524590982.1435692
2,4, 1, 4, 0,16, 0.00,60.00,Wednesday
218,532023282.10775435
1050,1524590982.1435692
2,4, 1, 4, 0,17, 0.00,60.00,Wednesday
218,593914169.5645514
1050,1524590982.1435692
2,4, 1, 4, 0,18, 0.00,60.00,Wednesday
218,339443317.00842553
1050,1057793295.4182142
2,4, 1, 4, 0,19, 0.00,60.00,Wednesday
218,203669488.0706059
1050,941093873.7368754
2,4, 1, 4, 0,20, 0.00,60.00,Wednesday
218,203669488.0706059
1050,941093873.7368754
2,4, 1, 4, 0,21, 0.00,60.00,Wednesday
218,135773828.93781975
1050,941093873.7368754
2,4, 1, 4, 0,22, 0.00,60.00,Wednesday
218,135773828.93781975
1050,941093873.7368754
2,4, 1, 4, 0,23, 0.00,60.00,Wednesday
218,67886879.13100572
1050,941093873.7368754
2,4, 1, 4, 0,24, 0.00,60.00,Wednesday
218,33943474.903407015
1050,941093873.7368754
2,5, 1, 5, 0, 1, 0.00,60.00,Thursday
218,33943474.903407015
1050,836730825.2177298
2,5, 1, 5, 0, 2, 0.00,60.00,Thursday
218,33943474.903407015
1050,836730825.2177298
2,5, 1, 5, 0, 3, 0.00,60.00,Thursday
218,33943474.903407015
1050,836730825.2177298
2,5, 1, 5, 0, 4, 0.00,60.00,Thursday
218,33943474.903407015
1050,836730825.2177298
2,5, 1, 5, 0, 5, 0.00,60.00,Thursday
218,33943474.903407015
1050,836730825.2177298
2,5, 1, 5, 0, 6, 0.00,60.00,Thursday
218,41984535.820733696
1050,836730825.2177298
2,5, 1, 5, 0, 7, 0.00,60.00,Thursday
218,62706410.468951315
1050,941093873.7368754
2,5, 1, 5, 0, 8, 0.00,60.00,Thursday
218,193626458.5275726
1050,941093873.7368754
2,5, 1, 5, 0, 9, 0.00,60.00,Thursday
218,526933417.03621364
1050,1524590982.1435692
2,5, 1, 5, 0,10, 0.00,60.00,Thursday
218,525554010.37144583
1050,1524590982.1435692
2,5, 1, 5, 0,11, 0.00,60.00,Thursday
218,525554010.37144583
1050,1524590982.1435692
2,5, 1, 5, 0,12, 0.00,60.00,Thursday
218,525554010.37144583
1050,1524590982.1435692
2,5, 1, 5, 0,13, 0.00,60.00,Thursday
218,525554010.37144583
1050,1407891560.4622302
2,5, 1, 5, 0,14, 0.00,60.00,Thursday
218,525554010.37144583
1050,1524590982.1435692
2,5, 1, 5, 0,15, 0.00,60.00,Thursday
218,525554010.37144583
1050,1524590982.1435692
2,5, 1, 5, 0,16, 0.00,60.00,Thursday
218,530873489.5758754
1050,1524590982.1435692
2,5, 1, 5, 0,17, 0.00,60.00,Thursday
218,595650270.5314157
1050,1524590982.1435692
2,5, 1, 5, 0,18, 0.00,60.00,Thursday
218,339443317.00842553
1050,1057793295.4182142
2,5, 1, 5, 0,19, 0.00,60.00,Thursday
218,203669488.0706059
1050,941093873.7368754
2,5, 1, 5, 0,20, 0.00,60.00,Thursday
218,203669488.0706059
1050,941093873.7368754
2,5, 1, 5, 0,21, 0.00,60.00,Thursday
218,135773828.93781975
1050,941093873.7368754
2,5, 1, 5, 0,22, 0.00,60.00,Thursday
218,135773828.93781975
1050,941093873.7368754
2,5, 1, 5, 0,23, 0.00,60.00,Thursday
218,67886879.13100572
1050,941093873.7368754
2,5, 1, 5, 0,24, 0.00,60.00,Thursday
218,33943474.903407015
1050,941093873.7368754
2,6, 1, 6, 0, 1, 0.00,60.00,Friday
218,33943474.903407015
1050,836730825.2177298
2,6, 1, 6, 0, 2, 0.00,60.00,Friday
218,33943474.903407015
1050,836730825.2177298
2,6, 1, 6, 0, 3, 0.00,60.00,Friday
218,33943474.903407015
1050,836730825.2177298
2,6, 1, 6, 0, 4, 0.00,60.00,Friday
218,33943474.903407015
1050,836730825.2177298
2,6, 1, 6, 0, 5, 0.00,60.00,Friday
218,33943474.903407015
1050,836730825.2177298
2,6, 1, 6, 0, 6, 0.00,60.00,Friday
218,41984535.820733696
1050,836730825.2177298
2,6, 1, 6, 0, 7, 0.00,60.00,Friday
218,62706410.468951315
1050,941093873.7368754
2,6, 1, 6, 0, 8, 0.00,60.00,Friday
218,193531110.11165005
1050,941093873.7368754
2,6, 1, 6, 0, 9, 0.00,60.00,Friday
218,526838322.82663876
1050,1524590982.1435692
2,6, 1, 6, 0,10, 0.00,60.00,Friday
218,525554010.37144583
1050,1524590982.1435692
2,6, 1, 6, 0,11, 0.00,60.00,Friday
218,525554010.37144583
1050,1524590982.1435692
2,6, 1, 6, 0,12, 0.00,60.00,Friday
218,525554010.37144583
1050,1524590982.1435692
2,6, 1, 6, 0,13, 0.00,60.00,Friday
218,525554010.37144583
1050,1407891560.4622302
2,6, 1, 6, 0,14, 0.00,60.00,Friday
218,527372824.5897411
1050,1524590982.1435692
2,6, 1, 6, 0,15, 0.00,60.00,Friday
218,535402453.83612764
1050,1524590982.1435692
2,6, 1, 6, 0,16, 0.00,60.00,Friday
218,544171940.6937547
1050,1524590982.1435692
2,6, 1, 6, 0,17, 0.00,60.00,Friday
218,597772875.2620207
1050,1524590982.1435692
2,6, 1, 6, 0,18, 0.00,60.00,Friday
218,339443317.00842553
1050,1057793295.4182142
2,6, 1, 6, 0,19, 0.00,60.00,Friday
218,203669488.0706059
1050,941093873.7368754
2,6, 1, 6, 0,20, 0.00,60.00,Friday
218,203669488.0706059
1050,941093873.7368754
2,6, 1, 6, 0,21, 0.00,60.00,Friday
218,135773828.93781975
1050,941093873.7368754
2,6, 1, 6, 0,22, 0.00,60.00,Friday
218,135773828.93781975
1050,941093873.7368754
2,6, 1, 6, 0,23, 0.00,60.00,Friday
218,67886879.13100572
1050,941093873.7368754
2,6, 1, 6, 0,24, 0.00,60.00,Friday
218,33943474.903407015
1050,941093873.7368754
2,7, 1, 7, 0, 1, 0.00,60.00,Saturday
218,33943474.903407015
1050,746122165.6661776
2,7, 1, 7, 0, 2, 0.00,60.00,Saturday
218,33943474.903407015
1050,746122165.6661776
2,7, 1, 7, 0, 3, 0.00,60.00,Saturday
218,33943474.903407015
1050,746122165.6661776
2,7, 1, 7, 0, 4, 0.00,60.00,Saturday
218,33943474.903407015
1050,746122165.6661776
2,7, 1, 7, 0, 5, 0.00,60.00,Saturday
218,33943474.903407015
1050,746122165.6661776
2,7, 1, 7, 0, 6, 0.00,60.00,Saturday
218,33943474.903407015
1050,746122165.6661776
2,7, 1, 7, 0, 7, 0.00,60.00,Saturday
218,67886879.13100572
1050,941093873.7368754
2,7, 1, 7, 0, 8, 0.00,60.00,Saturday
218,65032685.79135609
1050,941093873.7368754
2,7, 1, 7, 0, 9, 0.00,60.00,Saturday
218,175963335.0845128
1050,1057793295.4182142
2,7, 1, 7, 0,10, 0.00,60.00,Saturday
218,175187159.67192617
1050,1057793295.4182142
2,7, 1, 7, 0,11, 0.00,60.00,Saturday
218,175187159.67192617
1050,1057793295.4182142
2,7, 1, 7, 0,12, 0.00,60.00,Saturday
218,175187159.67192617
1050,1057793295.4182142
2,7, 1, 7, 0,13, 0.00,60.00,Saturday
218,87589810.17589262
1050,882744162.896206
2,7, 1, 7, 0,14, 0.00,60.00,Saturday
218,87589810.17589262
1050,882744162.896206
2,7, 1, 7, 0,15, 0.00,60.00,Saturday
218,87589810.17589262
1050,882744162.896206
2,7, 1, 7, 0,16, 0.00,60.00,Saturday
218,88596928.39052992
1050,882744162.896206
2,7, 1, 7, 0,17, 0.00,60.00,Saturday
218,99378579.07101521
1050,882744162.896206
2,7, 1, 7, 0,18, 0.00,60.00,Saturday
218,33943474.903407015
1050,824394452.0555365
2,7, 1, 7, 0,19, 0.00,60.00,Saturday
218,33943474.903407015
1050,824394452.0555365
2,7, 1, 7, 0,20, 0.00,60.00,Saturday
218,33943474.903407015
1050,746122165.6661776
2,7, 1, 7, 0,21, 0.00,60.00,Saturday
218,33943474.903407015
1050,746122165.6661776
2,7, 1, 7, 0,22, 0.00,60.00,Saturday
218,33943474.903407015
1050,746122165.6661776
2,7, 1, 7, 0,23, 0.00,60.00,Saturday
218,33943474.903407015
1050,746122165.6661776
2,7, 1, 7, 0,24, 0.00,60.00,Saturday
218,33943474.903407015
1050,746122165.6661776
2,8, 1, 8, 0, 1, 0.00,60.00,Sunday
218,33943474.903407015
1050,746122165.6661776
2,8, 1, 8, 0, 2, 0.00,60.00,Sunday
218,33943474.903407015
1050,746122165.6661776
2,8, 1, 8, 0, 3, 0.00,60.00,Sunday
218,33943474.903407015
1050,746122165.6661776
2,8, 1, 8, 0, 4, 0.00,60.00,Sunday
218,33943474.903407015
1050,746122165.6661776
2,8, 1, 8, 0, 5, 0.00,60.00,Sunday
218,33943474.903407015
1050,746122165.6661776
2,8, 1, 8, 0, 6, 0.00,60.00,Sunday
218,33943474.903407015
1050,746122165.6661776
2,8, 1, 8, 0, 7, 0.00,60.00,Sunday
218,33943474.903407015
1050,824394452.0555365
2,8, 1, 8, 0, 8, 0.00,60.00,Sunday
218,33292704.866192702
1050,824394452.0555365
2,8, 1, 8, 0, 9, 0.00,60.00,Sunday
218,29914927.362586405
1050,824394452.0555365
2,8, 1, 8, 0,10, 0.00,60.00,Sunday
218,29196626.950566977
1050,824394452.0555365
2,8, 1, 8, 0,11, 0.00,60.00,Sunday
218,29278346.61154595
1050,824394452.0555365
2,8, 1, 8, 0,12, 0.00,60.00,Sunday
218,29427807.70005711
1050,824394452.0555365
2,8, 1, 8, 0,13, 0.00,60.00,Sunday
218,29485283.45141796
1050,824394452.0555365
2,8, 1, 8, 0,14, 0.00,60.00,Sunday
218,29696848.002118684
1050,824394452.0555365
2,8, 1, 8, 0,15, 0.00,60.00,Sunday
218,30186602.857361253
1050,824394452.0555365
2,8, 1, 8, 0,16, 0.00,60.00,Sunday
218,31984491.047900897
1050,824394452.0555365
2,8, 1, 8, 0,17, 0.00,60.00,Sunday
218,33765686.27093164
1050,824394452.0555365
2,8, 1, 8, 0,18, 0.00,60.00,Sunday
218,33943474.903407015
1050,824394452.0555365
2,8, 1, 8, 0,19, 0.00,60.00,Sunday
218,33943474.903407015
1050,746122165.6661776
2,8, 1, 8, 0,20, 0.00,60.00,Sunday
218,33943474.903407015
1050,746122165.6661776
2,8, 1, 8, 0,21, 0.00,60.00,Sunday
218,33943474.903407015
1050,746122165.6661776
2,8, 1, 8, 0,22, 0.00,60.00,Sunday
218,33943474.903407015
1050,746122165.6661776
2,8, 1, 8, 0,23, 0.00,60.00,Sunday
218,33943474.903407015
1050,746122165.6661776
2,8, 1, 8, 0,24, 0.00,60.00,Sunday
218,33943474.903407015
1050,746122165.6661776
2,9, 1, 9, 0, 1, 0.00,60.00,Monday
218,33943474.903407015
1050,836730825.2177298
2,9, 1, 9, 0, 2, 0.00,60.00,Monday
218,33943474.903407015
1050,836730825.2177298
2,9, 1, 9, 0, 3, 0.00,60.00,Monday
218,33943474.903407015
1050,836730825.2177298
2,9, 1, 9, 0, 4, 0.00,60.00,Monday
218,33943474.903407015
1050,836730825.2177298
2,9, 1, 9, 0, 5, 0.00,60.00,Monday
218,33943474.903407015
1050,836730825.2177298
2,9, 1, 9, 0, 6, 0.00,60.00,Monday
218,41984535.820733696
1050,836730825.2177298
2,9, 1, 9, 0, 7, 0.00,60.00,Monday
218,62706410.468951315
1050,941093873.7368754
2,9, 1, 9, 0, 8, 0.00,60.00,Monday
218,197533702.97719455
1050,941093873.7368754
2,9, 1, 9, 0, 9, 0.00,60.00,Monday
218,530585982.8225249
1050,1524590982.1435692
2,9, 1, 9, 0,10, 0.00,60.00,Monday
218,525554010.37144583
1050,1524590982.1435692
2,9, 1, 9, 0,11, 0.00,60.00,Monday
218,525554010.37144583
1050,1524590982.1435692
2,9, 1, 9, 0,12, 0.00,60.00,Monday
218,525554010.37144583
1050,1524590982.1435692
2,9, 1, 9, 0,13, 0.00,60.00,Monday
218,525554010.37144583
1050,1407891560.4622302
2,9, 1, 9, 0,14, 0.00,60.00,Monday
218,525554010.37144583
1050,1524590982.1435692
2,9, 1, 9, 0,15, 0.00,60.00,Monday
218,531076964.3662947
1050,1524590982.1435692
2,9, 1, 9, 0,16, 0.00,60.00,Monday
218,566587824.8720579
1050,1524590982.1435692
2,9, 1, 9, 0,17, 0.00,60.00,Monday
218,606347432.779931
1050,1524590982.1435692
2,9, 1, 9, 0,18, 0.00,60.00,Monday
218,339443317.00842553
1050,1057793295.4182142
2,9, 1, 9, 0,19, 0.00,60.00,Monday
218,203669488.0706059
1050,941093873.7368754
2,9, 1, 9, 0,20, 0.00,60.00,Monday
218,203669488.0706059
1050,941093873.7368754
2,9, 1, 9, 0,21, 0.00,60.00,Monday
218,135773828.93781975
1050,941093873.7368754
2,9, 1, 9, 0,22, 0.00,60.00,Monday
218,135773828.93781975
1050,941093873.7368754
2,9, 1, 9, 0,23, 0.00,60.00,Monday
218,67886879.13100572
1050,941093873.7368754
2,9, 1, 9, 0,24, 0.00,60.00,Monday
218,33943474.903407015
1050,941093873.7368754
2,10, 1,10, 0, 1, 0.00,60.00,Tuesday
218,33943474.903407015
1050,836730825.2177298
2,10, 1,10, 0, 2, 0.00,60.00,Tuesday
218,33943474.903407015
1050,836730825.2177298
2,10, 1,10, 0, 3, 0.00,60.00,Tuesday
218,33943474.903407015
1050,836730825.2177298
2,10, 1,10, 0, 4, 0.00,60.00,Tuesday
218,33943474.903407015
1050,836730825.2177298
2,10, 1,10, 0, 5, 0.00,60.00,Tuesday
218,33943474.903407015
1050,836730825.2177298
2,10, 1,10, 0, 6, 0.00,60.00,Tuesday
218,41984535.820733696
1050,836730825.2177298
2,10, 1,10, 0, 7, 0.00,60.00,Tuesday
218,62706410.468951315
1050,941093873.7368754
2,10, 1,10, 0, 8, 0.00,60.00,Tuesday
218,192327719.48832923
1050,941093873.7368754
2,10, 1,10, 0, 9, 0.00,60.00,Tuesday
218,526111463.5424627
1050,1524590982.1435692
2,10, 1,10, 0,10, 0.00,60.00,Tuesday
218,525554010.37144583
1050,1524590982.1435692
2,10, 1,10, 0,11, 0.00,60.00,Tuesday
218,525554010.37144583
1050,1524590982.1435692
2,10, 1,10, 0,12, 0.00,60.00,Tuesday
218,525554010.37144583
1050,1524590982.1435692
2,10, 1,10, 0,13, 0.00,60.00,Tuesday
218,525554010.37144583
1050,1407891560.4622302
2,10, 1,10, 0,14, 0.00,60.00,Tuesday
218,525554010.37144583
1050,1524590982.1435692
2,10, 1,10, 0,15, 0.00,60.00,Tuesday
218,525554010.37144583
1050,1524590982.1435692
2,10, 1,10, 0,16, 0.00,60.00,Tuesday
218,529135195.96231467
1050,1524590982.1435692
2,10, 1,10, 0,17, 0.00,60.00,Tuesday
218,587072136.9682833
1050,1524590982.1435692
2,10, 1,10, 0,18, 0.00,60.00,Tuesday
218,339443317.00842553
1050,1057793295.4182142
2,10, 1,10, 0,19, 0.00,60.00,Tuesday
218,203669488.0706059
1050,941093873.7368754
2,10, 1,10, 0,20, 0.00,60.00,Tuesday
218,203669488.0706059
1050,941093873.7368754
2,10, 1,10, 0,21, 0.00,60.00,Tuesday
218,135773828.93781975
1050,941093873.7368754
2,10, 1,10, 0,22, 0.00,60.00,Tuesday
218,135773828.93781975
1050,941093873.7368754
2,10, 1,10, 0,23, 0.00,60.00,Tuesday
218,67886879.13100572
1050,941093873.7368754
2,10, 1,10, 0,24, 0.00,60.00,Tuesday
218,33943474.903407015
1050,941093873.7368754
2,11, 1,11, 0, 1, 0.00,60.00,Wednesday
218,33943474.903407015
1050,836730825.2177298
2,11, 1,11, 0, 2, 0.00,60.00,Wednesday
218,33943474.903407015
1050,836730825.2177298
2,11, 1,11, 0, 3, 0.00,60.00,Wednesday
218,33943474.903407015
1050,836730825.2177298
2,11, 1,11, 0, 4, 0.00,60.00,Wednesday
218,33943474.903407015
1050,836730825.2177298
2,11, 1,11, 0, 5, 0.00,60.00,Wednesday
218,33943474.903407015
1050,836730825.2177298
2,11, 1,11, 0, 6, 0.00,60.00,Wednesday
218,41984535.820733696
1050,836730825.2177298
2,11, 1,11, 0, 7, 0.00,60.00,Wednesday
218,62706410.468951315
1050,941093873.7368754
2,11, 1,11, 0, 8, 0.00,60.00,Wednesday
218,192301344.47614324
1050,941093873.7368754
2,11, 1,11, 0, 9, 0.00,60.00,Wednesday
218,526120301.6177024
1050,1524590982.1435692
2,11, 1,11, 0,10, 0.00,60.00,Wednesday
218,525554010.37144583
1050,1524590982.1435692
2,11, 1,11, 0,11, 0.00,60.00,Wednesday
218,525554010.37144583
1050,1524590982.1435692
2,11, 1,11, 0,12, 0.00,60.00,Wednesday
218,525554010.37144583
1050,1524590982.1435692
2,11, 1,11, 0,13, 0.00,60.00,Wednesday
218,525554010.37144583
1050,1407891560.4622302
2,11, 1,11, 0,14, 0.00,60.00,Wednesday
218,525554010.37144583
1050,1524590982.1435692
2,11, 1,11, 0,15, 0.00,60.00,Wednesday
218,525554010.37144583
1050,1524590982.1435692
2,11, 1,11, 0,16, 0.00,60.00,Wednesday
218,529253468.741986
1050,1524590982.1435692
2,11, 1,11, 0,17, 0.00,60.00,Wednesday
218,586414660.9388807
1050,1524590982.1435692
2,11, 1,11, 0,18, 0.00,60.00,Wednesday
218,339443317.00842553
1050,1057793295.4182142
2,11, 1,11, 0,19, 0.00,60.00,Wednesday
218,203669488.0706059
1050,941093873.7368754
2,11, 1,11, 0,20, 0.00,60.00,Wednesday
218,203669488.0706059
1050,941093873.7368754
2,11, 1,11, 0,21, 0.00,60.00,Wednesday
218,135773828.93781975
1050,941093873.7368754
2,11, 1,11, 0,22, 0.00,60.00,Wednesday
218,135773828.93781975
1050,941093873.7368754
2,11, 1,11, 0,23, 0.00,60.00,Wednesday
218,67886879.13100572
1050,941093873.7368754
2,11, 1,11, 0,24, 0.00,60.00,Wednesday
218,33943474.903407015
1050,941093873.7368754
2,12, 1,12, 0, 1, 0.00,60.00,Thursday
218,33943474.903407015
1050,836730825.2177298
2,12, 1,12, 0, 2, 0.00,60.00,Thursday
218,33943474.903407015
1050,836730825.2177298
2,12, 1,12, 0, 3, 0.00,60.00,Thursday
218,33943474.903407015
1050,836730825.2177298
2,12, 1,12, 0, 4, 0.00,60.00,Thursday
218,33943474.903407015
1050,836730825.2177298
2,12, 1,12, 0, 5, 0.00,60.00,Thursday
218,33943474.903407015
1050,836730825.2177298
2,12, 1,12, 0, 6, 0.00,60.00,Thursday
218,41984535.820733696
1050,836730825.2177298
2,12, 1,12, 0, 7, 0.00,60.00,Thursday
218,62706410.468951315
1050,941093873.7368754
2,12, 1,12, 0, 8, 0.00,60.00,Thursday
218,199776395.8988944
1050,941093873.7368754
2,12, 1,12, 0, 9, 0.00,60.00,Thursday
218,538367582.8838152
1050,1524590982.1435692
2,12, 1,12, 0,10, 0.00,60.00,Thursday
218,525554010.37144583
1050,1524590982.1435692
2,12, 1,12, 0,11, 0.00,60.00,Thursday
218,525554010.37144583
1050,1524590982.1435692
2,12, 1,12, 0,12, 0.00,60.00,Thursday
218,525554010.37144583
1050,1524590982.1435692
2,12, 1,12, 0,13, 0.00,60.00,Thursday
218,525554010.37144583
1050,1407891560.4622302
2,12, 1,12, 0,14, 0.00,60.00,Thursday
218,525554010.37144583
1050,1524590982.1435692
2,12, 1,12, 0,15, 0.00,60.00,Thursday
218,525554010.37144583
1050,1524590982.1435692
2,12, 1,12, 0,16, 0.00,60.00,Thursday
218,526900528.94833297
1050,1524590982.1435692
2,12, 1,12, 0,17, 0.00,60.00,Thursday
218,583705601.9553744
1050,1524590982.1435692
2,12, 1,12, 0,18, 0.00,60.00,Thursday
218,339443317.00842553
1050,1057793295.4182142
2,12, 1,12, 0,19, 0.00,60.00,Thursday
218,203669488.0706059
1050,941093873.7368754
2,12, 1,12, 0,20, 0.00,60.00,Thursday
218,203669488.0706059
1050,941093873.7368754
2,12, 1,12, 0,21, 0.00,60.00,Thursday
218,135773828.93781975
1050,941093873.7368754
2,12, 1,12, 0,22, 0.00,60.00,Thursday
218,135773828.93781975
1050,941093873.7368754
2,12, 1,12, 0,23, 0.00,60.00,Thursday
218,67886879.13100572
1050,941093873.7368754
2,12, 1,12, 0,24, 0.00,60.00,Thursday
218,33943474.903407015
1050,941093873.7368754
2,13, 1,13, 0, 1, 0.00,60.00,Friday
218,33943474.903407015
1050,836730825.2177298
2,13, 1,13, 0, 2, 0.00,60.00,Friday
218,33943474.903407015
1050,836730825.2177298
2,13, 1,13, 0, 3, 0.00,60.00,Friday
218,33943474.903407015
1050,836730825.2177298
2,13, 1,13, 0, 4, 0.00,60.00,Friday
218,33943474.903407015
1050,836730825.2177298
2,13, 1,13, 0, 5, 0.00,60.00,Friday
218,33943474.903407015
1050,836730825.2177298
2,13, 1,13, 0, 6, 0.00,60.00,Friday
218,41984535.820733696
1050,836730825.2177298
2,13, 1,13, 0, 7, 0.00,60.00,Friday
218,62706410.468951315
1050,941093873.7368754
2,13, 1,13, 0, 8, 0.00,60.00,Friday
218,198257207.9048335
1050,941093873.7368754
2,13, 1,13, 0, 9, 0.00,60.00,Friday
218,532749027.7883432
1050,1524590982.1435692
2,13, 1,13, 0,10, 0.00,60.00,Friday
218,525554010.37144583
1050,1524590982.1435692
2,13, 1,13, 0,11, 0.00,60.00,Friday
218,525554010.37144583
1050,1524590982.1435692
2,13, 1,13, 0,12, 0.00,60.00,Friday
218,525554010.37144583
1050,1524590982.1435692
2,13, 1,13, 0,13, 0.00,60.00,Friday
218,525554010.37144583
1050,1407891560.4622302
2,13, 1,13, 0,14, 0.00,60.00,Friday
218,527149618.3018305
1050,1524590982.1435692
2,13, 1,13, 0,15, 0.00,60.00,Friday
218,526319264.0066036
1050,1524590982.1435692
2,13, 1,13, 0,16, 0.00,60.00,Friday
218,538288185.7866709
1050,1524590982.1435692
2,13, 1,13, 0,17, 0.00,60.00,Friday
218,602409765.2969294
1050,1524590982.1435692
2,13, 1,13, 0,18, 0.00,60.00,Friday
218,339443317.00842553
1050,1057793295.4182142
2,13, 1,13, 0,19, 0.00,60.00,Friday
218,203669488.0706059
1050,941093873.7368754
2,13, 1,13, 0,20, 0.00,60.00,Friday
218,203669488.0706059
1050,941093873.7368754
2,13, 1,13, 0,21, 0.00,60.00,Friday
218,135773828.93781975
1050,941093873.7368754
2,13, 1,13, 0,22, 0.00,60.00,Friday
218,135773828.93781975
1050,941093873.7368754
2,13, 1,13, 0,23, 0.00,60.00,Friday
218,67886879.13100572
1050,941093873.7368754
2,13, 1,13, 0,24, 0.00,60.00,Friday
218,33943474.903407015
1050,941093873.7368754
2,14, 1,14, 0, 1, 0.00,60.00,Saturday
218,33943474.903407015
1050,746122165.6661776
2,14, 1,14, 0, 2, 0.00,60.00,Saturday
218,33943474.903407015
1050,746122165.6661776
2,14, 1,14, 0, 3, 0.00,60.00,Saturday
218,33943474.903407015
1050,746122165.6661776
2,14, 1,14, 0, 4, 0.00,60.00,Saturday
218,33943474.903407015
1050,746122165.6661776
2,14, 1,14, 0, 5, 0.00,60.00,Saturday
218,33943474.903407015
1050,746122165.6661776
2,14, 1,14, 0, 6, 0.00,60.00,Saturday
218,33943474.903407015
1050,746122165.6661776
2,14, 1,14, 0, 7, 0.00,60.00,Saturday
218,67886879.13100572
1050,941093873.7368754
2,14, 1,14, 0, 8, 0.00,60.00,Saturday
218,65360250.51632333
1050,941093873.7368754
2,14, 1,14, 0, 9, 0.00,60.00,Saturday
218,176556008.82625473
1050,1057793295.4182142
2,14, 1,14, 0,10, 0.00,60.00,Saturday
218,175566701.511156
1050,1057793295.4182142
2,14, 1,14, 0,11, 0.00,60.00,Saturday
218,177385549.058201
1050,1057793295.4182142
2,14, 1,14, 0,12, 0.00,60.00,Saturday
218,176918242.16879487
1050,1057793295.4182142
2,14, 1,14, 0,13, 0.00,60.00,Saturday
218,88290766.90116765
1050,882744162.896206
2,14, 1,14, 0,14, 0.00,60.00,Saturday
218,88798937.65050972
1050,882744162.896206
2,14, 1,14, 0,15, 0.00,60.00,Saturday
218,89521951.50579211
1050,882744162.896206
2,14, 1,14, 0,16, 0.00,60.00,Saturday
218,92150661.84590353
1050,882744162.896206
2,14, 1,14, 0,17, 0.00,60.00,Saturday
218,100625159.63300127
1050,882744162.896206
2,14, 1,14, 0,18, 0.00,60.00,Saturday
218,33943474.903407015
1050,824394452.0555365
2,14, 1,14, 0,19, 0.00,60.00,Saturday
218,33943474.903407015
1050,824394452.0555365
2,14, 1,14, 0,20, 0.00,60.00,Saturday
218,33943474.903407015
1050,746122165.6661776
2,14, 1,14, 0,21, 0.00,60.00,Saturday
218,33943474.903407015
1050,746122165.6661776
2,14, 1,14, 0,22, 0.00,60.00,Saturday
218,33943474.903407015
1050,746122165.6661776
2,14, 1,14, 0,23, 0.00,60.00,Saturday
218,33943474.903407015
1050,746122165.6661776
2,14, 1,14, 0,24, 0.00,60.00,Saturday
218,33943474.903407015
1050,746122165.6661776
2,15, 1,15, 0, 1, 0.00,60.00,Sunday
218,33943474.903407015
1050,746122165.6661776
2,15, 1,15, 0, 2, 0.00,60.00,Sunday
218,33943474.903407015
1050,746122165.6661776
2,15, 1,15, 0, 3, 0.00,60.00,Sunday
218,33943474.903407015
1050,746122165.6661776
2,15, 1,15, 0, 4, 0.00,60.00,Sunday
218,33943474.903407015
1050,746122165.6661776
2,15, 1,15, 0, 5, 0.00,60.00,Sunday
218,33943474.903407015
1050,746122165.6661776
2,15, 1,15, 0, 6, 0.00,60.00,Sunday
218,33943474.903407015
1050,746122165.6661776
2,15, 1,15, 0, 7, 0.00,60.00,Sunday
218,33943474.903407015
1050,824394452.0555365
2,15, 1,15, 0, 8, 0.00,60.00,Sunday
218,33508188.53636002
1050,824394452.0555365
2,15, 1,15, 0, 9, 0.00,60.00,Sunday
218,31223083.577265434
1050,824394452.0555365
2,15, 1,15, 0,10, 0.00,60.00,Sunday
218,29969886.933502614
1050,824394452.0555365
2,15, 1,15, 0,11, 0.00,60.00,Sunday
218,29664942.501685403
1050,824394452.0555365
2,15, 1,15, 0,12, 0.00,60.00,Sunday
218,29367192.117619935
1050,824394452.0555365
2,15, 1,15, 0,13, 0.00,60.00,Sunday
218,29196626.950566977
1050,824394452.0555365
2,15, 1,15, 0,14, 0.00,60.00,Sunday
218,29196626.950566977
1050,824394452.0555365
2,15, 1,15, 0,15, 0.00,60.00,Sunday
218,29196626.950566977
1050,824394452.0555365
2,15, 1,15, 0,16, 0.00,60.00,Sunday
218,29266468.94004935
1050,824394452.0555365
2,15, 1,15, 0,17, 0.00,60.00,Sunday
218,32576437.56390439
1050,824394452.0555365
2,15, 1,15, 0,18, 0.00,60.00,Sunday
218,33943474.903407015
1050,824394452.0555365