Program Version,EnergyPlus, Version 24.2.0-94a887817b, YMD=2025.04.14 16:15
1,5,Environment Title[],Latitude[deg],Longitude[deg],Time Zone[],Elevation[m]
2,8,Day of Simulation[],Month[],Day of Month[],DST Indicator[1=yes 0=no],Hour[],StartMinute[],EndMinute[],DayType
3,5,Cumulative Day of Simulation[],Month[],Day of Month[],DST Indicator[1=yes 0=no],DayType  ! When Daily Meters Requested
4,2,Cumulative Days of Simulation[],Month[]  ! When Monthly Meters Requested
5,1,Cumulative Days of Simulation[] ! When Run Period Meters Requested
6,1,Calendar Year of Simulation[] ! When Annual Meters Requested
226,1,InteriorLights:Electricity [J] !Hourly
1120,1,InteriorEquipment:Electricity [J] !Hourly
End of Data Dictionary
1,RUNPERIOD 1,   1.36, 103.91,   8.00,  19.80
2,1, 1, 1, 0, 1, 0.00,60.00,Holiday
226,40512414.83143302
1120,107057102.65348656
2,1, 1, 1, 0, 2, 0.00,60.00,Holiday
226,40512414.83143302
1120,107057102.65348656
2,1, 1, 1, 0, 3, 0.00,60.00,Holiday
226,24434192.262496896
1120,96537163.26531492
2,1, 1, 1, 0, 4, 0.00,60.00,Holiday
226,24434192.262496896
1120,96537163.26531492
2,1, 1, 1, 0, 5, 0.00,60.00,Holiday
226,24434192.262496896
1120,96537163.26531492
2,1, 1, 1, 0, 6, 0.00,60.00,Holiday
226,24434192.262496896
1120,96537163.26531492
2,1, 1, 1, 0, 7, 0.00,60.00,Holiday
226,46608921.15890301
1120,181350902.47468653
2,1, 1, 1, 0, 8, 0.00,60.00,Holiday
226,54161596.82232374
1120,262733725.53365818
2,1, 1, 1, 0, 9, 0.00,60.00,Holiday
226,58587962.784329675
1120,309387410.2728582
2,1, 1, 1, 0,10, 0.00,60.00,Holiday
226,49607651.0754184
1120,252213786.14548656
2,1, 1, 1, 0,11, 0.00,60.00,Holiday
226,43511144.7479484
1120,170569837.85188654
2,1, 1, 1, 0,12, 0.00,60.00,Holiday
226,40259674.70663107
1120,170569837.85188654
2,1, 1, 1, 0,13, 0.00,60.00,Holiday
226,40259674.70663107
1120,170569837.85188654
2,1, 1, 1, 0,14, 0.00,60.00,Holiday
226,31310550.602149807
1120,160049898.46371493
2,1, 1, 1, 0,15, 0.00,60.00,Holiday
226,31310550.602149807
1120,160049898.46371493
2,1, 1, 1, 0,16, 0.00,60.00,Holiday
226,31310550.602149807
1120,160049898.46371493
2,1, 1, 1, 0,17, 0.00,60.00,Holiday
226,31310550.602149807
1120,173379522.67491493
2,1, 1, 1, 0,18, 0.00,60.00,Holiday
226,31437235.321716577
1120,205037380.1765149
2,1, 1, 1, 0,19, 0.00,60.00,Holiday
226,81625384.11722527
1120,249926822.55222982
2,1, 1, 1, 0,20, 0.00,60.00,Holiday
226,110515746.1240184
1120,267634295.27577314
2,1, 1, 1, 0,21, 0.00,60.00,Holiday
226,120497450.83823784
1120,304813483.0863448
2,1, 1, 1, 0,22, 0.00,60.00,Holiday
226,100533638.38352334
1120,295437025.49480146
2,1, 1, 1, 0,23, 0.00,60.00,Holiday
226,84455427.34183392
1120,226599980.18262976
2,1, 1, 1, 0,24, 0.00,60.00,Holiday
226,46608921.15890301
1120,177234649.95748654
2,2, 1, 2, 0, 1, 0.00,60.00,Monday
226,28904963.56930822
1120,96537163.26531492
2,2, 1, 2, 0, 2, 0.00,60.00,Monday
226,21882138.185889654
1120,91277193.57122909
2,2, 1, 2, 0, 3, 0.00,60.00,Monday
226,14452487.548277447
1120,86017223.8771433
2,2, 1, 2, 0, 4, 0.00,60.00,Monday
226,14452487.548277447
1120,86017223.8771433
2,2, 1, 2, 0, 5, 0.00,60.00,Monday
226,14452487.548277447
1120,86017223.8771433
2,2, 1, 2, 0, 6, 0.00,60.00,Monday
226,28904963.56930822
1120,96537163.26531492
2,2, 1, 2, 0, 7, 0.00,60.00,Monday
226,57809927.13861644
1120,245189338.7076582
2,2, 1, 2, 0, 8, 0.00,60.00,Monday
226,69469903.87812719
1120,319907349.6610299
2,2, 1, 2, 0, 9, 0.00,60.00,Monday
226,53679558.59067696
1120,231075868.03205818
2,2, 1, 2, 0,10, 0.00,60.00,Monday
226,53679558.59067696
1120,231075868.03205818
2,2, 1, 2, 0,11, 0.00,60.00,Monday
226,33753133.864458255
1120,163643665.13140076
2,2, 1, 2, 0,12, 0.00,60.00,Monday
226,33753133.864458255
1120,163643665.13140076
2,2, 1, 2, 0,13, 0.00,60.00,Monday
226,33753133.864458255
1120,163643665.13140076
2,2, 1, 2, 0,14, 0.00,60.00,Monday
226,33753133.864458255
1120,163643665.13140076
2,2, 1, 2, 0,15, 0.00,60.00,Monday
226,33753133.864458255
1120,163643665.13140076
2,2, 1, 2, 0,16, 0.00,60.00,Monday
226,33753133.864458255
1120,163643665.13140076
2,2, 1, 2, 0,17, 0.00,60.00,Monday
226,33753133.864458255
1120,175307086.31620073
2,2, 1, 2, 0,18, 0.00,60.00,Monday
226,33956645.29942091
1120,223626974.08180067
2,2, 1, 2, 0,19, 0.00,60.00,Monday
226,83640847.47368161
1120,260446761.94040146
2,2, 1, 2, 0,20, 0.00,60.00,Monday
226,116026679.5314265
1120,278154234.6639447
2,2, 1, 2, 0,21, 0.00,60.00,Monday
226,130479167.07970402
1120,310073452.7804306
2,2, 1, 2, 0,22, 0.00,60.00,Monday
226,116026679.5314265
1120,316476904.2711447
2,2, 1, 2, 0,23, 0.00,60.00,Monday
226,87121324.46308938
1120,237119919.57080144
2,2, 1, 2, 0,24, 0.00,60.00,Monday
226,43357451.11758568
1120,177234649.95748654
2,3, 1, 3, 0, 1, 0.00,60.00,Tuesday
226,28904963.56930822
1120,96537163.26531492
2,3, 1, 3, 0, 2, 0.00,60.00,Tuesday
226,21882138.185889654
1120,91277193.57122909
2,3, 1, 3, 0, 3, 0.00,60.00,Tuesday
226,14452487.548277447
1120,86017223.8771433
2,3, 1, 3, 0, 4, 0.00,60.00,Tuesday
226,14452487.548277447
1120,86017223.8771433
2,3, 1, 3, 0, 5, 0.00,60.00,Tuesday
226,14452487.548277447
1120,86017223.8771433
2,3, 1, 3, 0, 6, 0.00,60.00,Tuesday
226,28904963.56930822
1120,96537163.26531492
2,3, 1, 3, 0, 7, 0.00,60.00,Tuesday
226,57809927.13861644
1120,245189338.7076582
2,3, 1, 3, 0, 8, 0.00,60.00,Tuesday
226,69538637.47389701
1120,319907349.6610299
2,3, 1, 3, 0, 9, 0.00,60.00,Tuesday
226,53710173.92328506
1120,231075868.03205818
2,3, 1, 3, 0,10, 0.00,60.00,Tuesday
226,53679558.59067696
1120,231075868.03205818
2,3, 1, 3, 0,11, 0.00,60.00,Tuesday
226,33753133.864458255
1120,163643665.13140076
2,3, 1, 3, 0,12, 0.00,60.00,Tuesday
226,33753133.864458255
1120,163643665.13140076
2,3, 1, 3, 0,13, 0.00,60.00,Tuesday
226,33753133.864458255
1120,163643665.13140076
2,3, 1, 3, 0,14, 0.00,60.00,Tuesday
226,33753133.864458255
1120,163643665.13140076
2,3, 1, 3, 0,15, 0.00,60.00,Tuesday
226,33753133.864458255
1120,163643665.13140076
2,3, 1, 3, 0,16, 0.00,60.00,Tuesday
226,33753133.864458255
1120,163643665.13140076
2,3, 1, 3, 0,17, 0.00,60.00,Tuesday
226,33753133.864458255
1120,175307086.31620073
2,3, 1, 3, 0,18, 0.00,60.00,Tuesday
226,33915212.71738787
1120,223626974.08180067
2,3, 1, 3, 0,19, 0.00,60.00,Tuesday
226,83476009.15032661
1120,260446761.94040146
2,3, 1, 3, 0,20, 0.00,60.00,Tuesday
226,116026679.5314265
1120,278154234.6639447
2,3, 1, 3, 0,21, 0.00,60.00,Tuesday
226,130479167.07970402
1120,310073452.7804306
2,3, 1, 3, 0,22, 0.00,60.00,Tuesday
226,116026679.5314265
1120,316476904.2711447
2,3, 1, 3, 0,23, 0.00,60.00,Tuesday
226,87121324.46308938
1120,237119919.57080144
2,3, 1, 3, 0,24, 0.00,60.00,Tuesday
226,43357451.11758568
1120,177234649.95748654
2,4, 1, 4, 0, 1, 0.00,60.00,Wednesday
226,28904963.56930822
1120,96537163.26531492
2,4, 1, 4, 0, 2, 0.00,60.00,Wednesday
226,21882138.185889654
1120,91277193.57122909
2,4, 1, 4, 0, 3, 0.00,60.00,Wednesday
226,14452487.548277447
1120,86017223.8771433
2,4, 1, 4, 0, 4, 0.00,60.00,Wednesday
226,14452487.548277447
1120,86017223.8771433
2,4, 1, 4, 0, 5, 0.00,60.00,Wednesday
226,14452487.548277447
1120,86017223.8771433
2,4, 1, 4, 0, 6, 0.00,60.00,Wednesday
226,28904963.56930822
1120,96537163.26531492
2,4, 1, 4, 0, 7, 0.00,60.00,Wednesday
226,57809927.13861644
1120,245189338.7076582
2,4, 1, 4, 0, 8, 0.00,60.00,Wednesday
226,69397234.12398833
1120,319907349.6610299
2,4, 1, 4, 0, 9, 0.00,60.00,Wednesday
226,53679558.59067696
1120,231075868.03205818
2,4, 1, 4, 0,10, 0.00,60.00,Wednesday
226,53679558.59067696
1120,231075868.03205818
2,4, 1, 4, 0,11, 0.00,60.00,Wednesday
226,33753133.864458255
1120,163643665.13140076
2,4, 1, 4, 0,12, 0.00,60.00,Wednesday
226,33753133.864458255
1120,163643665.13140076
2,4, 1, 4, 0,13, 0.00,60.00,Wednesday
226,33753133.864458255
1120,163643665.13140076
2,4, 1, 4, 0,14, 0.00,60.00,Wednesday
226,33753133.864458255
1120,163643665.13140076
2,4, 1, 4, 0,15, 0.00,60.00,Wednesday
226,33753133.864458255
1120,163643665.13140076
2,4, 1, 4, 0,16, 0.00,60.00,Wednesday
226,33753133.864458255
1120,163643665.13140076
2,4, 1, 4, 0,17, 0.00,60.00,Wednesday
226,33753133.864458255
1120,175307086.31620073
2,4, 1, 4, 0,18, 0.00,60.00,Wednesday
226,33936582.64887621
1120,223626974.08180067
2,4, 1, 4, 0,19, 0.00,60.00,Wednesday
226,83829461.44716099
1120,260446761.94040146
2,4, 1, 4, 0,20, 0.00,60.00,Wednesday
226,116026679.5314265
1120,278154234.6639447
2,4, 1, 4, 0,21, 0.00,60.00,Wednesday
226,130479167.07970402
1120,310073452.7804306
2,4, 1, 4, 0,22, 0.00,60.00,Wednesday
226,116026679.5314265
1120,316476904.2711447
2,4, 1, 4, 0,23, 0.00,60.00,Wednesday
226,87121324.46308938
1120,237119919.57080144
2,4, 1, 4, 0,24, 0.00,60.00,Wednesday
226,43357451.11758568
1120,177234649.95748654
2,5, 1, 5, 0, 1, 0.00,60.00,Thursday
226,28904963.56930822
1120,96537163.26531492
2,5, 1, 5, 0, 2, 0.00,60.00,Thursday
226,21882138.185889654
1120,91277193.57122909
2,5, 1, 5, 0, 3, 0.00,60.00,Thursday
226,14452487.548277447
1120,86017223.8771433
2,5, 1, 5, 0, 4, 0.00,60.00,Thursday
226,14452487.548277447
1120,86017223.8771433
2,5, 1, 5, 0, 5, 0.00,60.00,Thursday
226,14452487.548277447
1120,86017223.8771433
2,5, 1, 5, 0, 6, 0.00,60.00,Thursday
226,28904963.56930822
1120,96537163.26531492
2,5, 1, 5, 0, 7, 0.00,60.00,Thursday
226,57809927.13861644
1120,245189338.7076582
2,5, 1, 5, 0, 8, 0.00,60.00,Thursday
226,69479631.89106196
1120,319907349.6610299
2,5, 1, 5, 0, 9, 0.00,60.00,Thursday
226,53679558.59067696
1120,231075868.03205818
2,5, 1, 5, 0,10, 0.00,60.00,Thursday
226,53679558.59067696
1120,231075868.03205818
2,5, 1, 5, 0,11, 0.00,60.00,Thursday
226,33753133.864458255
1120,163643665.13140076
2,5, 1, 5, 0,12, 0.00,60.00,Thursday
226,33753133.864458255
1120,163643665.13140076
2,5, 1, 5, 0,13, 0.00,60.00,Thursday
226,33753133.864458255
1120,163643665.13140076
2,5, 1, 5, 0,14, 0.00,60.00,Thursday
226,33753133.864458255
1120,163643665.13140076
2,5, 1, 5, 0,15, 0.00,60.00,Thursday
226,33753133.864458255
1120,163643665.13140076
2,5, 1, 5, 0,16, 0.00,60.00,Thursday
226,33753133.864458255
1120,163643665.13140076
2,5, 1, 5, 0,17, 0.00,60.00,Thursday
226,33774317.85818884
1120,175307086.31620073
2,5, 1, 5, 0,18, 0.00,60.00,Thursday
226,34023010.49304235
1120,223626974.08180067
2,5, 1, 5, 0,19, 0.00,60.00,Thursday
226,84072236.06402397
1120,260446761.94040146
2,5, 1, 5, 0,20, 0.00,60.00,Thursday
226,116026679.5314265
1120,278154234.6639447
2,5, 1, 5, 0,21, 0.00,60.00,Thursday
226,130479167.07970402
1120,310073452.7804306
2,5, 1, 5, 0,22, 0.00,60.00,Thursday
226,116026679.5314265
1120,316476904.2711447
2,5, 1, 5, 0,23, 0.00,60.00,Thursday
226,87121324.46308938
1120,237119919.57080144
2,5, 1, 5, 0,24, 0.00,60.00,Thursday
226,43357451.11758568
1120,177234649.95748654
2,6, 1, 6, 0, 1, 0.00,60.00,Friday
226,28904963.56930822
1120,96537163.26531492
2,6, 1, 6, 0, 2, 0.00,60.00,Friday
226,21882138.185889654
1120,91277193.57122909
2,6, 1, 6, 0, 3, 0.00,60.00,Friday
226,14452487.548277447
1120,86017223.8771433
2,6, 1, 6, 0, 4, 0.00,60.00,Friday
226,14452487.548277447
1120,86017223.8771433
2,6, 1, 6, 0, 5, 0.00,60.00,Friday
226,14452487.548277447
1120,86017223.8771433
2,6, 1, 6, 0, 6, 0.00,60.00,Friday
226,28904963.56930822
1120,96537163.26531492
2,6, 1, 6, 0, 7, 0.00,60.00,Friday
226,57809927.13861644
1120,245189338.7076582
2,6, 1, 6, 0, 8, 0.00,60.00,Friday
226,69548860.35145594
1120,319907349.6610299
2,6, 1, 6, 0, 9, 0.00,60.00,Friday
226,53679558.59067696
1120,231075868.03205818
2,6, 1, 6, 0,10, 0.00,60.00,Friday
226,53679558.59067696
1120,231075868.03205818
2,6, 1, 6, 0,11, 0.00,60.00,Friday
226,33753133.864458255
1120,163643665.13140076
2,6, 1, 6, 0,12, 0.00,60.00,Friday
226,33753133.864458255
1120,163643665.13140076
2,6, 1, 6, 0,13, 0.00,60.00,Friday
226,33753133.864458255
1120,163643665.13140076
2,6, 1, 6, 0,14, 0.00,60.00,Friday
226,33753133.864458255
1120,163643665.13140076
2,6, 1, 6, 0,15, 0.00,60.00,Friday
226,33753133.864458255
1120,163643665.13140076
2,6, 1, 6, 0,16, 0.00,60.00,Friday
226,33753133.864458255
1120,163643665.13140076
2,6, 1, 6, 0,17, 0.00,60.00,Friday
226,33822235.892425865
1120,175307086.31620073
2,6, 1, 6, 0,18, 0.00,60.00,Friday
226,34206914.295058236
1120,223626974.08180067
2,6, 1, 6, 0,19, 0.00,60.00,Friday
226,84997932.2448993
1120,260446761.94040146
2,6, 1, 6, 0,20, 0.00,60.00,Friday
226,116026679.5314265
1120,278154234.6639447
2,6, 1, 6, 0,21, 0.00,60.00,Friday
226,130479167.07970402
1120,310073452.7804306
2,6, 1, 6, 0,22, 0.00,60.00,Friday
226,116026679.5314265
1120,316476904.2711447
2,6, 1, 6, 0,23, 0.00,60.00,Friday
226,87121324.46308938
1120,237119919.57080144
2,6, 1, 6, 0,24, 0.00,60.00,Friday
226,43357451.11758568
1120,177234649.95748654
2,7, 1, 7, 0, 1, 0.00,60.00,Saturday
226,30530698.589966886
1120,96537163.26531492
2,7, 1, 7, 0, 2, 0.00,60.00,Saturday
226,30530698.589966886
1120,96537163.26531492
2,7, 1, 7, 0, 3, 0.00,60.00,Saturday
226,14452487.548277447
1120,86017223.8771433
2,7, 1, 7, 0, 4, 0.00,60.00,Saturday
226,14452487.548277447
1120,86017223.8771433
2,7, 1, 7, 0, 5, 0.00,60.00,Saturday
226,14452487.548277447
1120,86017223.8771433
2,7, 1, 7, 0, 6, 0.00,60.00,Saturday
226,14452487.548277447
1120,86017223.8771433
2,7, 1, 7, 0, 7, 0.00,60.00,Saturday
226,46608921.15890301
1120,181350902.47468653
2,7, 1, 7, 0, 8, 0.00,60.00,Saturday
226,44748662.31616353
1120,252213786.14548656
2,7, 1, 7, 0, 9, 0.00,60.00,Saturday
226,58556763.65265297
1120,309387410.2728582
2,7, 1, 7, 0,10, 0.00,60.00,Saturday
226,58556763.65265297
1120,262733725.53365818
2,7, 1, 7, 0,11, 0.00,60.00,Saturday
226,43511144.7479484
1120,170569837.85188654
2,7, 1, 7, 0,12, 0.00,60.00,Saturday
226,35785302.640281595
1120,165309868.15780073
2,7, 1, 7, 0,13, 0.00,60.00,Saturday
226,35785302.640281595
1120,165309868.15780073
2,7, 1, 7, 0,14, 0.00,60.00,Saturday
226,35785302.640281595
1120,165309868.15780073
2,7, 1, 7, 0,15, 0.00,60.00,Saturday
226,35785302.640281595
1120,165309868.15780073
2,7, 1, 7, 0,16, 0.00,60.00,Saturday
226,35785302.640281595
1120,165309868.15780073
2,7, 1, 7, 0,17, 0.00,60.00,Saturday
226,35785302.640281595
1120,178639492.36900073
2,7, 1, 7, 0,18, 0.00,60.00,Saturday
226,35977069.37150031
1120,210297349.87060076
2,7, 1, 7, 0,19, 0.00,60.00,Saturday
226,90844965.44766611
1120,260446761.94040146
2,7, 1, 7, 0,20, 0.00,60.00,Saturday
226,110515746.1240184
1120,267634295.27577314
2,7, 1, 7, 0,21, 0.00,60.00,Saturday
226,110515746.1240184
1120,294293543.6981731
2,7, 1, 7, 0,22, 0.00,60.00,Saturday
226,110515746.1240184
1120,305956964.88297313
2,7, 1, 7, 0,23, 0.00,60.00,Saturday
226,94437132.05605336
1120,237119919.57080144
2,7, 1, 7, 0,24, 0.00,60.00,Saturday
226,46608921.15890301
1120,177234649.95748654
2,8, 1, 8, 0, 1, 0.00,60.00,Sunday
226,40512414.83143302
1120,107057102.65348656
2,8, 1, 8, 0, 2, 0.00,60.00,Sunday
226,40512414.83143302
1120,107057102.65348656
2,8, 1, 8, 0, 3, 0.00,60.00,Sunday
226,24434192.262496896
1120,96537163.26531492
2,8, 1, 8, 0, 4, 0.00,60.00,Sunday
226,24434192.262496896
1120,96537163.26531492
2,8, 1, 8, 0, 5, 0.00,60.00,Sunday
226,24434192.262496896
1120,96537163.26531492
2,8, 1, 8, 0, 6, 0.00,60.00,Sunday
226,24434192.262496896
1120,96537163.26531492
2,8, 1, 8, 0, 7, 0.00,60.00,Sunday
226,46608921.15890301
1120,181350902.47468653
2,8, 1, 8, 0, 8, 0.00,60.00,Sunday
226,53971592.02392984
1120,262733725.53365818
2,8, 1, 8, 0, 9, 0.00,60.00,Sunday
226,58556763.65265297
1120,309387410.2728582
2,8, 1, 8, 0,10, 0.00,60.00,Sunday
226,49607651.0754184
1120,252213786.14548656
2,8, 1, 8, 0,11, 0.00,60.00,Sunday
226,43511144.7479484
1120,170569837.85188654
2,8, 1, 8, 0,12, 0.00,60.00,Sunday
226,40259674.70663107
1120,170569837.85188654
2,8, 1, 8, 0,13, 0.00,60.00,Sunday
226,40259674.70663107
1120,170569837.85188654
2,8, 1, 8, 0,14, 0.00,60.00,Sunday
226,31310550.602149807
1120,160049898.46371493
2,8, 1, 8, 0,15, 0.00,60.00,Sunday
226,31310550.602149807
1120,160049898.46371493
2,8, 1, 8, 0,16, 0.00,60.00,Sunday
226,31310550.602149807
1120,160049898.46371493
2,8, 1, 8, 0,17, 0.00,60.00,Sunday
226,31326061.74231165
1120,173379522.67491493
2,8, 1, 8, 0,18, 0.00,60.00,Sunday
226,31483605.477146722
1120,205037380.1765149
2,8, 1, 8, 0,19, 0.00,60.00,Sunday
226,81536732.77429889
1120,249926822.55222982
2,8, 1, 8, 0,20, 0.00,60.00,Sunday
226,110515746.1240184
1120,267634295.27577314
2,8, 1, 8, 0,21, 0.00,60.00,Sunday
226,120497450.83823784
1120,304813483.0863448
2,8, 1, 8, 0,22, 0.00,60.00,Sunday
226,100533638.38352334
1120,295437025.49480146
2,8, 1, 8, 0,23, 0.00,60.00,Sunday
226,84455427.34183392
1120,226599980.18262976
2,8, 1, 8, 0,24, 0.00,60.00,Sunday
226,46608921.15890301
1120,177234649.95748654
2,9, 1, 9, 0, 1, 0.00,60.00,Monday
226,28904963.56930822
1120,96537163.26531492
2,9, 1, 9, 0, 2, 0.00,60.00,Monday
226,21882138.185889654
1120,91277193.57122909
2,9, 1, 9, 0, 3, 0.00,60.00,Monday
226,14452487.548277447
1120,86017223.8771433
2,9, 1, 9, 0, 4, 0.00,60.00,Monday
226,14452487.548277447
1120,86017223.8771433
2,9, 1, 9, 0, 5, 0.00,60.00,Monday
226,14452487.548277447
1120,86017223.8771433
2,9, 1, 9, 0, 6, 0.00,60.00,Monday
226,28904963.56930822
1120,96537163.26531492
2,9, 1, 9, 0, 7, 0.00,60.00,Monday
226,57809927.13861644
1120,245189338.7076582
2,9, 1, 9, 0, 8, 0.00,60.00,Monday
226,69518965.65523843
1120,319907349.6610299
2,9, 1, 9, 0, 9, 0.00,60.00,Monday
226,53679558.59067696
1120,231075868.03205818
2,9, 1, 9, 0,10, 0.00,60.00,Monday
226,53679558.59067696
1120,231075868.03205818
2,9, 1, 9, 0,11, 0.00,60.00,Monday
226,33753133.864458255
1120,163643665.13140076
2,9, 1, 9, 0,12, 0.00,60.00,Monday
226,33753133.864458255
1120,163643665.13140076
2,9, 1, 9, 0,13, 0.00,60.00,Monday
226,33753133.864458255
1120,163643665.13140076
2,9, 1, 9, 0,14, 0.00,60.00,Monday
226,33753133.864458255
1120,163643665.13140076
2,9, 1, 9, 0,15, 0.00,60.00,Monday
226,33753133.864458255
1120,163643665.13140076
2,9, 1, 9, 0,16, 0.00,60.00,Monday
226,33753133.864458255
1120,163643665.13140076
2,9, 1, 9, 0,17, 0.00,60.00,Monday
226,33771336.17342712
1120,175307086.31620073
2,9, 1, 9, 0,18, 0.00,60.00,Monday
226,33971471.728900395
1120,223626974.08180067
2,9, 1, 9, 0,19, 0.00,60.00,Monday
226,83737336.9380068
1120,260446761.94040146
2,9, 1, 9, 0,20, 0.00,60.00,Monday
226,116026679.5314265
1120,278154234.6639447
2,9, 1, 9, 0,21, 0.00,60.00,Monday
226,130479167.07970402
1120,310073452.7804306
2,9, 1, 9, 0,22, 0.00,60.00,Monday
226,116026679.5314265
1120,316476904.2711447
2,9, 1, 9, 0,23, 0.00,60.00,Monday
226,87121324.46308938
1120,237119919.57080144
2,9, 1, 9, 0,24, 0.00,60.00,Monday
226,43357451.11758568
1120,177234649.95748654
2,10, 1,10, 0, 1, 0.00,60.00,Tuesday
226,28904963.56930822
1120,96537163.26531492
2,10, 1,10, 0, 2, 0.00,60.00,Tuesday
226,21882138.185889654
1120,91277193.57122909
2,10, 1,10, 0, 3, 0.00,60.00,Tuesday
226,14452487.548277447
1120,86017223.8771433
2,10, 1,10, 0, 4, 0.00,60.00,Tuesday
226,14452487.548277447
1120,86017223.8771433
2,10, 1,10, 0, 5, 0.00,60.00,Tuesday
226,14452487.548277447
1120,86017223.8771433
2,10, 1,10, 0, 6, 0.00,60.00,Tuesday
226,28904963.56930822
1120,96537163.26531492
2,10, 1,10, 0, 7, 0.00,60.00,Tuesday
226,57809927.13861644
1120,245189338.7076582
2,10, 1,10, 0, 8, 0.00,60.00,Tuesday
226,69456847.19920343
1120,319907349.6610299
2,10, 1,10, 0, 9, 0.00,60.00,Tuesday
226,53679558.59067696
1120,231075868.03205818
2,10, 1,10, 0,10, 0.00,60.00,Tuesday
226,53679558.59067696
1120,231075868.03205818
2,10, 1,10, 0,11, 0.00,60.00,Tuesday
226,33753133.864458255
1120,163643665.13140076
2,10, 1,10, 0,12, 0.00,60.00,Tuesday
226,33753133.864458255
1120,163643665.13140076
2,10, 1,10, 0,13, 0.00,60.00,Tuesday
226,33753133.864458255
1120,163643665.13140076
2,10, 1,10, 0,14, 0.00,60.00,Tuesday
226,33753133.864458255
1120,163643665.13140076
2,10, 1,10, 0,15, 0.00,60.00,Tuesday
226,33753133.864458255
1120,163643665.13140076
2,10, 1,10, 0,16, 0.00,60.00,Tuesday
226,33753133.864458255
1120,163643665.13140076
2,10, 1,10, 0,17, 0.00,60.00,Tuesday
226,33753133.864458255
1120,175307086.31620073
2,10, 1,10, 0,18, 0.00,60.00,Tuesday
226,33852551.819184676
1120,223626974.08180067
2,10, 1,10, 0,19, 0.00,60.00,Tuesday
226,83770748.84565485
1120,260446761.94040146
2,10, 1,10, 0,20, 0.00,60.00,Tuesday
226,116026679.5314265
1120,278154234.6639447
2,10, 1,10, 0,21, 0.00,60.00,Tuesday
226,130479167.07970402
1120,310073452.7804306
2,10, 1,10, 0,22, 0.00,60.00,Tuesday
226,116026679.5314265
1120,316476904.2711447
2,10, 1,10, 0,23, 0.00,60.00,Tuesday
226,87121324.46308938
1120,237119919.57080144
2,10, 1,10, 0,24, 0.00,60.00,Tuesday
226,43357451.11758568
1120,177234649.95748654
2,11, 1,11, 0, 1, 0.00,60.00,Wednesday
226,28904963.56930822
1120,96537163.26531492
2,11, 1,11, 0, 2, 0.00,60.00,Wednesday
226,21882138.185889654
1120,91277193.57122909
2,11, 1,11, 0, 3, 0.00,60.00,Wednesday
226,14452487.548277447
1120,86017223.8771433
2,11, 1,11, 0, 4, 0.00,60.00,Wednesday
226,14452487.548277447
1120,86017223.8771433
2,11, 1,11, 0, 5, 0.00,60.00,Wednesday
226,14452487.548277447
1120,86017223.8771433
2,11, 1,11, 0, 6, 0.00,60.00,Wednesday
226,28904963.56930822
1120,96537163.26531492
2,11, 1,11, 0, 7, 0.00,60.00,Wednesday
226,57809927.13861644
1120,245189338.7076582
2,11, 1,11, 0, 8, 0.00,60.00,Wednesday
226,69528179.26762907
1120,319907349.6610299
2,11, 1,11, 0, 9, 0.00,60.00,Wednesday
226,53679558.59067696
1120,231075868.03205818
2,11, 1,11, 0,10, 0.00,60.00,Wednesday
226,53679558.59067696
1120,231075868.03205818
2,11, 1,11, 0,11, 0.00,60.00,Wednesday
226,33753133.864458255
1120,163643665.13140076
2,11, 1,11, 0,12, 0.00,60.00,Wednesday
226,33753133.864458255
1120,163643665.13140076
2,11, 1,11, 0,13, 0.00,60.00,Wednesday
226,33753133.864458255
1120,163643665.13140076
2,11, 1,11, 0,14, 0.00,60.00,Wednesday
226,33753133.864458255
1120,163643665.13140076
2,11, 1,11, 0,15, 0.00,60.00,Wednesday
226,33753133.864458255
1120,163643665.13140076
2,11, 1,11, 0,16, 0.00,60.00,Wednesday
226,33753133.864458255
1120,163643665.13140076
2,11, 1,11, 0,17, 0.00,60.00,Wednesday
226,33753133.864458255
1120,175307086.31620073
2,11, 1,11, 0,18, 0.00,60.00,Wednesday
226,33878032.19481998
1120,223626974.08180067
2,11, 1,11, 0,19, 0.00,60.00,Wednesday
226,83323853.92606665
1120,260446761.94040146
2,11, 1,11, 0,20, 0.00,60.00,Wednesday
226,116026679.5314265
1120,278154234.6639447
2,11, 1,11, 0,21, 0.00,60.00,Wednesday
226,130479167.07970402
1120,310073452.7804306
2,11, 1,11, 0,22, 0.00,60.00,Wednesday
226,116026679.5314265
1120,316476904.2711447
2,11, 1,11, 0,23, 0.00,60.00,Wednesday
226,87121324.46308938
1120,237119919.57080144
2,11, 1,11, 0,24, 0.00,60.00,Wednesday
226,43357451.11758568
1120,177234649.95748654
2,12, 1,12, 0, 1, 0.00,60.00,Thursday
226,28904963.56930822
1120,96537163.26531492
2,12, 1,12, 0, 2, 0.00,60.00,Thursday
226,21882138.185889654
1120,91277193.57122909
2,12, 1,12, 0, 3, 0.00,60.00,Thursday
226,14452487.548277447
1120,86017223.8771433
2,12, 1,12, 0, 4, 0.00,60.00,Thursday
226,14452487.548277447
1120,86017223.8771433
2,12, 1,12, 0, 5, 0.00,60.00,Thursday
226,14452487.548277447
1120,86017223.8771433
2,12, 1,12, 0, 6, 0.00,60.00,Thursday
226,28904963.56930822
1120,96537163.26531492
2,12, 1,12, 0, 7, 0.00,60.00,Thursday
226,57809927.13861644
1120,245189338.7076582
2,12, 1,12, 0, 8, 0.00,60.00,Thursday
226,69518543.14451784
1120,319907349.6610299
2,12, 1,12, 0, 9, 0.00,60.00,Thursday
226,53679558.59067696
1120,231075868.03205818
2,12, 1,12, 0,10, 0.00,60.00,Thursday
226,53679558.59067696
1120,231075868.03205818
2,12, 1,12, 0,11, 0.00,60.00,Thursday
226,33753133.864458255
1120,163643665.13140076
2,12, 1,12, 0,12, 0.00,60.00,Thursday
226,33753133.864458255
1120,163643665.13140076
2,12, 1,12, 0,13, 0.00,60.00,Thursday
226,33753133.864458255
1120,163643665.13140076
2,12, 1,12, 0,14, 0.00,60.00,Thursday
226,33753133.864458255
1120,163643665.13140076
2,12, 1,12, 0,15, 0.00,60.00,Thursday
226,33753133.864458255
1120,163643665.13140076
2,12, 1,12, 0,16, 0.00,60.00,Thursday
226,33753133.864458255
1120,163643665.13140076
2,12, 1,12, 0,17, 0.00,60.00,Thursday
226,33753133.864458255
1120,175307086.31620073
2,12, 1,12, 0,18, 0.00,60.00,Thursday
226,33946298.19238278
1120,223626974.08180067
2,12, 1,12, 0,19, 0.00,60.00,Thursday
226,83458187.01631808
1120,260446761.94040146
2,12, 1,12, 0,20, 0.00,60.00,Thursday
226,115778460.17432931
1120,278154234.6639447
2,12, 1,12, 0,21, 0.00,60.00,Thursday
226,130479167.07970402
1120,310073452.7804306
2,12, 1,12, 0,22, 0.00,60.00,Thursday
226,116026679.5314265
1120,316476904.2711447
2,12, 1,12, 0,23, 0.00,60.00,Thursday
226,87121324.46308938
1120,237119919.57080144
2,12, 1,12, 0,24, 0.00,60.00,Thursday
226,43357451.11758568
1120,177234649.95748654
2,13, 1,13, 0, 1, 0.00,60.00,Friday
226,28904963.56930822
1120,96537163.26531492
2,13, 1,13, 0, 2, 0.00,60.00,Friday
226,21882138.185889654
1120,91277193.57122909
2,13, 1,13, 0, 3, 0.00,60.00,Friday
226,14452487.548277447
1120,86017223.8771433
2,13, 1,13, 0, 4, 0.00,60.00,Friday
226,14452487.548277447
1120,86017223.8771433
2,13, 1,13, 0, 5, 0.00,60.00,Friday
226,14452487.548277447
1120,86017223.8771433
2,13, 1,13, 0, 6, 0.00,60.00,Friday
226,28904963.56930822
1120,96537163.26531492
2,13, 1,13, 0, 7, 0.00,60.00,Friday
226,57809927.13861644
1120,245189338.7076582
2,13, 1,13, 0, 8, 0.00,60.00,Friday
226,69603046.64569274
1120,319907349.6610299
2,13, 1,13, 0, 9, 0.00,60.00,Friday
226,53679558.59067696
1120,231075868.03205818
2,13, 1,13, 0,10, 0.00,60.00,Friday
226,53679558.59067696
1120,231075868.03205818
2,13, 1,13, 0,11, 0.00,60.00,Friday
226,33753133.864458255
1120,163643665.13140076
2,13, 1,13, 0,12, 0.00,60.00,Friday
226,33753133.864458255
1120,163643665.13140076
2,13, 1,13, 0,13, 0.00,60.00,Friday
226,33753133.864458255
1120,163643665.13140076
2,13, 1,13, 0,14, 0.00,60.00,Friday
226,33753133.864458255
1120,163643665.13140076
2,13, 1,13, 0,15, 0.00,60.00,Friday
226,33753133.864458255
1120,163643665.13140076
2,13, 1,13, 0,16, 0.00,60.00,Friday
226,33753133.864458255
1120,163643665.13140076
2,13, 1,13, 0,17, 0.00,60.00,Friday
226,33753133.864458255
1120,175307086.31620073
2,13, 1,13, 0,18, 0.00,60.00,Friday
226,33880658.42678412
1120,223626974.08180067
2,13, 1,13, 0,19, 0.00,60.00,Friday
226,83881809.50206365
1120,260446761.94040146
2,13, 1,13, 0,20, 0.00,60.00,Friday
226,115828022.36950253
1120,278154234.6639447
2,13, 1,13, 0,21, 0.00,60.00,Friday
226,130479167.07970402
1120,310073452.7804306
2,13, 1,13, 0,22, 0.00,60.00,Friday
226,116026679.5314265
1120,316476904.2711447
2,13, 1,13, 0,23, 0.00,60.00,Friday
226,87121324.46308938
1120,237119919.57080144
2,13, 1,13, 0,24, 0.00,60.00,Friday
226,43357451.11758568
1120,177234649.95748654
2,14, 1,14, 0, 1, 0.00,60.00,Saturday
226,30530698.589966886
1120,96537163.26531492
2,14, 1,14, 0, 2, 0.00,60.00,Saturday
226,30530698.589966886
1120,96537163.26531492
2,14, 1,14, 0, 3, 0.00,60.00,Saturday
226,14452487.548277447
1120,86017223.8771433
2,14, 1,14, 0, 4, 0.00,60.00,Saturday
226,14452487.548277447
1120,86017223.8771433
2,14, 1,14, 0, 5, 0.00,60.00,Saturday
226,14452487.548277447
1120,86017223.8771433
2,14, 1,14, 0, 6, 0.00,60.00,Saturday
226,14452487.548277447
1120,86017223.8771433
2,14, 1,14, 0, 7, 0.00,60.00,Saturday
226,46608921.15890301
1120,181350902.47468653
2,14, 1,14, 0, 8, 0.00,60.00,Saturday
226,44857758.87471276
1120,252213786.14548656
2,14, 1,14, 0, 9, 0.00,60.00,Saturday
226,58556763.65265297
1120,309387410.2728582
2,14, 1,14, 0,10, 0.00,60.00,Saturday
226,58556763.65265297
1120,262733725.53365818
2,14, 1,14, 0,11, 0.00,60.00,Saturday
226,43511144.7479484
1120,170569837.85188654
2,14, 1,14, 0,12, 0.00,60.00,Saturday
226,35785302.640281595
1120,165309868.15780073
2,14, 1,14, 0,13, 0.00,60.00,Saturday
226,35785302.640281595
1120,165309868.15780073
2,14, 1,14, 0,14, 0.00,60.00,Saturday
226,35785302.640281595
1120,165309868.15780073
2,14, 1,14, 0,15, 0.00,60.00,Saturday
226,35785302.640281595
1120,165309868.15780073
2,14, 1,14, 0,16, 0.00,60.00,Saturday
226,35785302.640281595
1120,165309868.15780073
2,14, 1,14, 0,17, 0.00,60.00,Saturday
226,35785302.640281595
1120,178639492.36900073
2,14, 1,14, 0,18, 0.00,60.00,Saturday
226,35942146.66722463
1120,210297349.87060076
2,14, 1,14, 0,19, 0.00,60.00,Saturday
226,90978665.8145269
1120,260446761.94040146
2,14, 1,14, 0,20, 0.00,60.00,Saturday
226,110321094.1408363
1120,267634295.27577314
2,14, 1,14, 0,21, 0.00,60.00,Saturday
226,110515746.1240184
1120,294293543.6981731
2,14, 1,14, 0,22, 0.00,60.00,Saturday
226,110515746.1240184
1120,305956964.88297313
2,14, 1,14, 0,23, 0.00,60.00,Saturday
226,94437132.05605336
1120,237119919.57080144
2,14, 1,14, 0,24, 0.00,60.00,Saturday
226,46608921.15890301
1120,177234649.95748654
2,15, 1,15, 0, 1, 0.00,60.00,Sunday
226,40512414.83143302
1120,107057102.65348656
2,15, 1,15, 0, 2, 0.00,60.00,Sunday
226,40512414.83143302
1120,107057102.65348656
2,15, 1,15, 0, 3, 0.00,60.00,Sunday
226,24434192.262496896
1120,96537163.26531492
2,15, 1,15, 0, 4, 0.00,60.00,Sunday
226,24434192.262496896
1120,96537163.26531492
2,15, 1,15, 0, 5, 0.00,60.00,Sunday
226,24434192.262496896
1120,96537163.26531492
2,15, 1,15, 0, 6, 0.00,60.00,Sunday
226,24434192.262496896
1120,96537163.26531492
2,15, 1,15, 0, 7, 0.00,60.00,Sunday
226,46608921.15890301
1120,181350902.47468653
2,15, 1,15, 0, 8, 0.00,60.00,Sunday
226,54181628.6586118
1120,262733725.53365818
2,15, 1,15, 0, 9, 0.00,60.00,Sunday
226,58556763.65265297
1120,309387410.2728582
2,15, 1,15, 0,10, 0.00,60.00,Sunday
226,49607651.0754184
1120,252213786.14548656
2,15, 1,15, 0,11, 0.00,60.00,Sunday
226,43511144.7479484
1120,170569837.85188654
2,15, 1,15, 0,12, 0.00,60.00,Sunday
226,40259674.70663107
1120,170569837.85188654
2,15, 1,15, 0,13, 0.00,60.00,Sunday
226,40259674.70663107
1120,170569837.85188654
2,15, 1,15, 0,14, 0.00,60.00,Sunday
226,31310550.602149807
1120,160049898.46371493
2,15, 1,15, 0,15, 0.00,60.00,Sunday
226,31310550.602149807
1120,160049898.46371493
2,15, 1,15, 0,16, 0.00,60.00,Sunday
226,31310550.602149807
1120,160049898.46371493
2,15, 1,15, 0,17, 0.00,60.00,Sunday
226,31310550.602149807
1120,173379522.67491493
2,15, 1,15, 0,18, 0.00,60.00,Sunday
226,31466158.010257192
1120,205037380.1765149