Program Version,EnergyPlus, Version 24.2.0-94a887817b, YMD=2024.11.04 11:49
