Program Version,EnergyPlus, Version 24.2.0-94a887817b, YMD=2025.02.26 15:01
1,5,Environment Title[],Latitude[deg],Longitude[deg],Time Zone[],Elevation[m]
2,8,Day of Simulation[],Month[],Day of Month[],DST Indicator[1=yes 0=no],Hour[],StartMinute[],EndMinute[],DayType
3,5,Cumulative Day of Simulation[],Month[],Day of Month[],DST Indicator[1=yes 0=no],DayType  ! When Daily Report Variables Requested
4,2,Cumulative Days of Simulation[],Month[]  ! When Monthly Report Variables Requested
5,1,Cumulative Days of Simulation[] ! When Run Period Report Variables Requested
6,1,Calendar Year of Simulation[] ! When Annual Report Variables Requested
128,1,TEST_OFFICE_0,Zone Lights Electricity Energy [J] !Hourly
202,1,TEST_OFFICE_0,Zone Electric Equipment Electricity Energy [J] !Hourly
651,1,FAN COIL WITH CONST FAN VAR FLUID FLOW - FAN,Fan Electricity Energy [J] !Hourly
688,1,FAN VARIABLE VOLUME 1,Fan Electricity Energy [J] !Hourly
715,1,CHILLER ELECTRIC EIR 1,Chiller Electricity Energy [J] !Hourly
925,1,PUMP VARIABLE SPEED 2,Pump Electricity Energy [J] !Hourly
950,1,PUMP VARIABLE SPEED 3,Pump Electricity Energy [J] !Hourly
951,1,PUMP VARIABLE SPEED 1,Pump Electricity Energy [J] !Hourly
End of Data Dictionary
1,RUN PERIOD 1,  31.40, 121.45,   8.00,   5.50
2,1, 1, 1, 0, 1, 0.00,60.00,Sunday
128,244072.75646705893
202,1260302.960666268
651,1026868.9694648555
688,204740.87770730196
715,0.0
925,0.0
950,0.0
951,6820.157422947108
2,1, 1, 1, 0, 2, 0.00,60.00,Sunday
128,244072.75646705893
202,1260302.960666268
651,1026868.9694648555
688,204740.87770730196
715,0.0
925,0.0
950,0.0
951,7780.9273183825
2,1, 1, 1, 0, 3, 0.00,60.00,Sunday
128,244072.75646705893
202,1260302.960666268
651,1026868.9694648555
688,204740.87770730196
715,0.0
925,0.0
950,0.0
951,8965.304065612278
2,1, 1, 1, 0, 4, 0.00,60.00,Sunday
128,244072.75646705893
202,1260302.960666268
651,1026868.9694648555
688,204740.87770730196
715,0.0
925,0.0
950,0.0
951,9927.618402173963
2,1, 1, 1, 0, 5, 0.00,60.00,Sunday
128,244072.75646705893
202,1260302.960666268
651,1026868.9694648555
688,204740.87770730196
715,0.0
925,0.0
950,0.0
951,10872.565840878586
2,1, 1, 1, 0, 6, 0.00,60.00,Sunday
128,488145.51293411787
202,1260302.960666268
651,1026868.9694648555
688,204740.87770730196
715,0.0
925,0.0
950,0.0
951,11765.59077217202
2,1, 1, 1, 0, 7, 0.00,60.00,Sunday
128,488145.51293411787
202,1260302.960666268
651,1026868.9694648555
688,204740.87770730193
715,0.0
925,0.0
950,0.0
951,47584.60864525746
2,1, 1, 1, 0, 8, 0.00,60.00,Sunday
128,1464436.5388023537
202,1260302.960666268
651,1026868.9694648555
688,204740.87770730196
715,0.0
925,0.0
950,0.0
951,38839.52503042866
2,1, 1, 1, 0, 9, 0.00,60.00,Sunday
128,4393309.616407061
202,2835681.661499103
651,1026868.9694648555
688,204740.87770730196
715,0.0
925,0.0
950,0.0
951,23412.135831367294
2,1, 1, 1, 0,10, 0.00,60.00,Sunday
128,4393309.616407061
202,2835681.661499103
651,1026868.9694648555
688,204740.87770730196
715,0.0
925,0.0
950,0.0
951,16626.57592749642
2,1, 1, 1, 0,11, 0.00,60.00,Sunday
128,4393309.616407061
202,2835681.661499103
651,1026868.9694648555
688,204740.87770730196
715,0.0
925,0.0
950,0.0
951,11718.05648790399
2,1, 1, 1, 0,12, 0.00,60.00,Sunday
128,4393309.616407061
202,2835681.661499103
651,1026868.9694648555
688,204740.87770730196
715,0.0
925,0.0
950,0.0
951,8240.97829146557
2,1, 1, 1, 0,13, 0.00,60.00,Sunday
128,4393309.616407061
202,2520605.921332536
651,1026868.9694648555
688,204740.87770730196
715,0.0
925,0.0
950,0.0
951,6659.595290031132
2,1, 1, 1, 0,14, 0.00,60.00,Sunday
128,4393309.616407061
202,2835681.661499103
651,1026868.9694648555
688,204740.87770730196
715,0.0
925,0.0
950,0.0
951,5025.558539416393
2,1, 1, 1, 0,15, 0.00,60.00,Sunday
128,4393309.616407061
202,2835681.661499103
651,1026868.9694648555
688,204740.87770730196
715,0.0
925,0.0
950,0.0
951,4490.753594285314
2,1, 1, 1, 0,16, 0.00,60.00,Sunday
128,4393309.616407061
202,2835681.661499103
651,1026868.9694648555
688,204740.87770730196
715,0.0
925,0.0
950,0.0
951,2237.585925323817
2,1, 1, 1, 0,17, 0.00,60.00,Sunday
128,4393309.616407061
202,2835681.661499103
651,1026868.9694648555
688,204740.87770730196
715,0.0
925,0.0
950,0.0
951,3663.1773255586177
2,1, 1, 1, 0,18, 0.00,60.00,Sunday
128,3417018.5905388244
202,2520605.921332536
651,1026868.9694648555
688,204740.87770730196
715,0.0
925,0.0
950,0.0
951,9000.244233826576
2,1, 1, 1, 0,19, 0.00,60.00,Sunday
128,2440727.5646705893
202,1890454.440999402
651,1026868.9694648555
688,204740.87770730196
715,0.0
925,0.0
950,0.0
951,14108.248798861905
2,1, 1, 1, 0,20, 0.00,60.00,Sunday
128,2440727.5646705893
202,1890454.440999402
651,1026868.9694648555
688,204740.87770730196
715,0.0
925,0.0
950,0.0
951,16217.909329533286
2,1, 1, 1, 0,21, 0.00,60.00,Sunday
128,1464436.5388023537
202,1575378.7008328347
651,1026868.9694648555
688,204740.87770730196
715,0.0
925,0.0
950,0.0
951,20905.189205223098
2,1, 1, 1, 0,22, 0.00,60.00,Sunday
128,1464436.5388023537
202,1575378.7008328347
651,1026868.9694648555
688,204740.87770730196
715,0.0
925,0.0
950,0.0
951,22703.358080923615
2,1, 1, 1, 0,23, 0.00,60.00,Sunday
128,488145.51293411787
202,1260302.960666268
651,1026868.9694648555
688,204740.87770730193
715,0.0
925,0.0
950,0.0
951,1455.1414290341595
2,1, 1, 1, 0,24, 0.00,60.00,Sunday
128,244072.75646705893
202,1260302.960666268
651,1026868.9694648555
688,204740.87770730196
715,0.0
925,0.0
950,0.0
951,5589.037434804801
2,2, 1, 2, 0, 1, 0.00,60.00,Monday
128,244072.75646705893
202,1260302.960666268
651,1026868.9694648555
688,204740.87770730196
715,0.0
925,0.0
950,0.0
951,7410.725159948589
2,2, 1, 2, 0, 2, 0.00,60.00,Monday
128,244072.75646705893
202,1260302.960666268
651,1026868.9694648555
688,204740.87770730196
715,0.0
925,0.0
950,0.0
951,8883.435206128017
2,2, 1, 2, 0, 3, 0.00,60.00,Monday
128,244072.75646705893
202,1260302.960666268
651,1026868.9694648555
688,204740.87770730196
715,0.0
925,0.0
950,0.0
951,10157.573520658056
2,2, 1, 2, 0, 4, 0.00,60.00,Monday
128,244072.75646705893
202,1260302.960666268
651,1026868.9694648555
688,204740.87770730196
715,0.0
925,0.0
950,0.0
951,11370.331969964873
2,2, 1, 2, 0, 5, 0.00,60.00,Monday
128,244072.75646705893
202,1260302.960666268
651,1026868.9694648555
688,204740.87770730196
715,0.0
925,0.0
950,0.0
951,12571.244543296067
2,2, 1, 2, 0, 6, 0.00,60.00,Monday
128,488145.51293411787
202,1260302.960666268
651,1026868.9694648555
688,204740.87770730196
715,0.0
925,0.0
950,0.0
951,13450.764832505965
2,2, 1, 2, 0, 7, 0.00,60.00,Monday
128,488145.51293411787
202,1260302.960666268
651,1026868.9694648555
688,204740.87770730193
715,0.0
925,0.0
950,0.0
951,49442.72283304695
2,2, 1, 2, 0, 8, 0.00,60.00,Monday
128,1464436.5388023537
202,1260302.960666268
651,1026868.9694648555
688,204740.87770730196
715,0.0
925,0.0
950,0.0
951,39808.613695484906
2,2, 1, 2, 0, 9, 0.00,60.00,Monday
128,4393309.616407061
202,2835681.661499103
651,1026868.9694648555
688,204740.87770730196
715,0.0
925,0.0
950,0.0
951,20038.434089843817
2,2, 1, 2, 0,10, 0.00,60.00,Monday
128,4393309.616407061
202,2835681.661499103
651,1026868.9694648555
688,204740.87770730196
715,0.0
925,0.0
950,0.0
951,15084.688004781716
2,2, 1, 2, 0,11, 0.00,60.00,Monday
128,4393309.616407061
202,2835681.661499103
651,1026868.9694648555
688,204740.87770730196
715,0.0
925,0.0
950,0.0
951,10929.145318775643
2,2, 1, 2, 0,12, 0.00,60.00,Monday
128,4393309.616407061
202,2835681.661499103
651,1026868.9694648555
688,204740.87770730196
715,0.0
925,0.0
950,0.0
951,8858.368842222484
2,2, 1, 2, 0,13, 0.00,60.00,Monday
128,4393309.616407061
202,2520605.921332536
651,1026868.9694648555
688,204740.87770730196
715,0.0
925,0.0
950,0.0
951,5408.175401861343
2,2, 1, 2, 0,14, 0.00,60.00,Monday
128,4393309.616407061
202,2835681.661499103
651,1026868.9694648555
688,204740.87770730196
715,0.0
925,0.0
950,0.0
951,381.871501999038
2,2, 1, 2, 0,15, 0.00,60.00,Monday
128,4393309.616407061
202,2835681.661499103
651,1026868.9694648555
688,204740.87770730196
715,0.0
925,0.0
950,0.0
951,0.0
2,2, 1, 2, 0,16, 0.00,60.00,Monday
128,4393309.616407061
202,2835681.661499103
651,1026868.9694648555
688,204740.87770730196
715,0.0
925,0.0
950,0.0
951,0.0
2,2, 1, 2, 0,17, 0.00,60.00,Monday
128,4393309.616407061
202,2835681.661499103
651,1026868.9694648555
688,204740.87770730196
715,0.0
925,0.0
950,0.0
951,0.0
2,2, 1, 2, 0,18, 0.00,60.00,Monday
128,3417018.5905388244
202,2520605.921332536
651,1026868.9694648555
688,204740.87770730196
715,0.0
925,0.0
950,0.0
951,1917.2242602589215
2,2, 1, 2, 0,19, 0.00,60.00,Monday
128,2440727.5646705893
202,1890454.440999402
651,1026868.9694648555
688,204740.87770730196
715,0.0
925,0.0
950,0.0
951,7897.037222368625
2,2, 1, 2, 0,20, 0.00,60.00,Monday
128,2440727.5646705893
202,1890454.440999402
651,1026868.9694648555
688,204740.87770730196
715,0.0
925,0.0
950,0.0
951,10290.678325642879
2,2, 1, 2, 0,21, 0.00,60.00,Monday
128,1464436.5388023537
202,1575378.7008328347
651,1026868.9694648555
688,204740.87770730196
715,0.0
925,0.0
950,0.0
951,14552.853874213055
2,2, 1, 2, 0,22, 0.00,60.00,Monday
128,1464436.5388023537
202,1575378.7008328347
651,1026868.9694648555
688,204740.87770730196
715,0.0
925,0.0
950,0.0
951,16349.655450516766
2,2, 1, 2, 0,23, 0.00,60.00,Monday
128,488145.51293411787
202,1260302.960666268
651,1026868.9694648555
688,204740.87770730193
715,0.0
925,0.0
950,0.0
951,0.0
2,2, 1, 2, 0,24, 0.00,60.00,Monday
128,244072.75646705893
202,1260302.960666268
651,1026868.9694648555
688,204740.87770730196
715,0.0
925,0.0
950,0.0
951,850.8047139816842
2,3, 1, 3, 0, 1, 0.00,60.00,Tuesday
128,244072.75646705893
202,1260302.960666268
651,1026868.9694648555
688,204740.87770730196
715,0.0
925,0.0
950,0.0
951,3104.3038484007807
2,3, 1, 3, 0, 2, 0.00,60.00,Tuesday
128,244072.75646705893
202,1260302.960666268
651,1026868.9694648555
688,204740.87770730196
715,0.0
925,0.0
950,0.0
951,4753.686250445015
2,3, 1, 3, 0, 3, 0.00,60.00,Tuesday
128,244072.75646705893
202,1260302.960666268
651,1026868.9694648555
688,204740.87770730196
715,0.0
925,0.0
950,0.0
951,6217.489405941861
2,3, 1, 3, 0, 4, 0.00,60.00,Tuesday
128,244072.75646705893
202,1260302.960666268
651,1026868.9694648555
688,204740.87770730196
715,0.0
925,0.0
950,0.0
951,7647.046939266351
2,3, 1, 3, 0, 5, 0.00,60.00,Tuesday
128,244072.75646705893
202,1260302.960666268
651,1026868.9694648555
688,204740.87770730196
715,0.0
925,0.0
950,0.0
951,9029.754033341029
2,3, 1, 3, 0, 6, 0.00,60.00,Tuesday
128,488145.51293411787
202,1260302.960666268
651,1026868.9694648555
688,204740.87770730196
715,0.0
925,0.0
950,0.0
951,9864.449027445939
2,3, 1, 3, 0, 7, 0.00,60.00,Tuesday
128,488145.51293411787
202,1260302.960666268
651,1026868.9694648555
688,204740.87770730193
715,0.0
925,0.0
950,0.0
951,43924.339576398925
2,3, 1, 3, 0, 8, 0.00,60.00,Tuesday
128,1464436.5388023537
202,1260302.960666268
651,1026868.9694648555
688,204740.87770730196
715,0.0
925,0.0
950,0.0
951,34377.98544575808
2,3, 1, 3, 0, 9, 0.00,60.00,Tuesday
128,4393309.616407061
202,2835681.661499103
651,1026868.9694648555
688,204740.87770730196
715,0.0
925,0.0
950,0.0
951,19563.958076218736
2,3, 1, 3, 0,10, 0.00,60.00,Tuesday
128,4393309.616407061
202,2835681.661499103
651,1026868.9694648555
688,204740.87770730196
715,0.0
925,0.0
950,0.0
951,11594.515571963664
2,3, 1, 3, 0,11, 0.00,60.00,Tuesday
128,4393309.616407061
202,2835681.661499103
651,1026868.9694648555
688,204740.87770730196
715,0.0
925,0.0
950,0.0
951,9293.346182695941
2,3, 1, 3, 0,12, 0.00,60.00,Tuesday
128,4393309.616407061
202,2835681.661499103
651,1026868.9694648555
688,204740.87770730196
715,0.0
925,0.0
950,0.0
951,3987.9331974347815
2,3, 1, 3, 0,13, 0.00,60.00,Tuesday
128,4393309.616407061
202,2520605.921332536
651,1026868.9694648555
688,204740.87770730196
715,0.0
925,0.0
950,0.0
951,4485.004657383304
2,3, 1, 3, 0,14, 0.00,60.00,Tuesday
128,4393309.616407061
202,2835681.661499103
651,1026868.9694648555
688,204740.87770730196
715,0.0
925,0.0
950,0.0
951,2839.914329888809
2,3, 1, 3, 0,15, 0.00,60.00,Tuesday
128,4393309.616407061
202,2835681.661499103
651,1026868.9694648555
688,204740.87770730196
715,0.0
925,0.0
950,0.0
951,176.41197498819332
2,3, 1, 3, 0,16, 0.00,60.00,Tuesday
128,4393309.616407061
202,2835681.661499103
651,1026868.9694648555
688,204740.87770730196
715,0.0
925,0.0
950,0.0
951,2332.9575243241347
2,3, 1, 3, 0,17, 0.00,60.00,Tuesday
128,4393309.616407061
202,2835681.661499103
651,1026868.9694648555
688,204740.87770730196
715,0.0
925,0.0
950,0.0
951,5351.157237798051
2,3, 1, 3, 0,18, 0.00,60.00,Tuesday
128,3417018.5905388244
202,2520605.921332536
651,1026868.9694648555
688,204740.87770730196
715,0.0
925,0.0
950,0.0
951,10687.017161682104
2,3, 1, 3, 0,19, 0.00,60.00,Tuesday
128,2440727.5646705893
202,1890454.440999402
651,1026868.9694648555
688,204740.87770730196
715,0.0
925,0.0
950,0.0
951,16224.761908376917
2,3, 1, 3, 0,20, 0.00,60.00,Tuesday
128,2440727.5646705893
202,1890454.440999402
651,1026868.9694648555
688,204740.87770730196
715,0.0
925,0.0
950,0.0
951,18506.778202155758
2,3, 1, 3, 0,21, 0.00,60.00,Tuesday
128,1464436.5388023537
202,1575378.7008328347
651,1026868.9694648555
688,204740.87770730196
715,0.0
925,0.0
950,0.0
951,23136.33442945812
2,3, 1, 3, 0,22, 0.00,60.00,Tuesday
128,1464436.5388023537
202,1575378.7008328347
651,1026868.9694648555
688,204740.87770730196
715,0.0
925,0.0
950,0.0
951,24654.318875841196
2,3, 1, 3, 0,23, 0.00,60.00,Tuesday
128,488145.51293411787
202,1260302.960666268
651,1026868.9694648555
688,204740.87770730193
715,0.0
925,0.0
950,0.0
951,2322.6238616730775
2,3, 1, 3, 0,24, 0.00,60.00,Tuesday
128,244072.75646705893
202,1260302.960666268
651,1026868.9694648555
688,204740.87770730196
715,0.0
925,0.0
950,0.0
951,7059.855146051683
2,4, 1, 4, 0, 1, 0.00,60.00,Wednesday
128,244072.75646705893
202,1260302.960666268
651,1026868.9694648555
688,204740.87770730196
715,0.0
925,0.0
950,0.0
951,9053.339197363119
2,4, 1, 4, 0, 2, 0.00,60.00,Wednesday
128,244072.75646705893
202,1260302.960666268
651,1026868.9694648555
688,204740.87770730196
715,0.0
925,0.0
950,0.0
951,10569.08003819759
2,4, 1, 4, 0, 3, 0.00,60.00,Wednesday
128,244072.75646705893
202,1260302.960666268
651,1026868.9694648555
688,204740.87770730196
715,0.0
925,0.0
950,0.0
951,11826.06525432911
2,4, 1, 4, 0, 4, 0.00,60.00,Wednesday
128,244072.75646705893
202,1260302.960666268
651,1026868.9694648555
688,204740.87770730196
715,0.0
925,0.0
950,0.0
951,12840.605702984867
2,4, 1, 4, 0, 5, 0.00,60.00,Wednesday
128,244072.75646705893
202,1260302.960666268
651,1026868.9694648555
688,204740.87770730196
715,0.0
925,0.0
950,0.0
951,13734.519452876517
2,4, 1, 4, 0, 6, 0.00,60.00,Wednesday
128,488145.51293411787
202,1260302.960666268
651,1026868.9694648555
688,204740.87770730196
715,0.0
925,0.0
950,0.0
951,14186.772862866666
2,4, 1, 4, 0, 7, 0.00,60.00,Wednesday
128,488145.51293411787
202,1260302.960666268
651,1026868.9694648555
688,204740.87770730193
715,0.0
925,0.0
950,0.0
951,50163.76768763867
2,4, 1, 4, 0, 8, 0.00,60.00,Wednesday
128,1464436.5388023537
202,1260302.960666268
651,1026868.9694648555
688,204740.87770730196
715,0.0
925,0.0
950,0.0
951,40602.1173322399
2,4, 1, 4, 0, 9, 0.00,60.00,Wednesday
128,4393309.616407061
202,2835681.661499103
651,1026868.9694648555
688,204740.87770730196
715,0.0
925,0.0
950,0.0
951,20342.429627702273
2,4, 1, 4, 0,10, 0.00,60.00,Wednesday
128,4393309.616407061
202,2835681.661499103
651,1026868.9694648555
688,204740.87770730196
715,0.0
925,0.0
950,0.0
951,16073.827629361202
2,4, 1, 4, 0,11, 0.00,60.00,Wednesday
128,4393309.616407061
202,2835681.661499103
651,1026868.9694648555
688,204740.87770730196
715,0.0
925,0.0
950,0.0
951,10098.148330238984
2,4, 1, 4, 0,12, 0.00,60.00,Wednesday
128,4393309.616407061
202,2835681.661499103
651,1026868.9694648555
688,204740.87770730196
715,0.0
925,0.0
950,0.0
951,7806.518084467633
2,4, 1, 4, 0,13, 0.00,60.00,Wednesday
128,4393309.616407061
202,2520605.921332536
651,1026868.9694648555
688,204740.87770730196
715,0.0
925,0.0
950,0.0
951,4552.405216212259
2,4, 1, 4, 0,14, 0.00,60.00,Wednesday
128,4393309.616407061
202,2835681.661499103
651,1026868.9694648555
688,204740.87770730196
715,0.0
925,0.0
950,0.0
951,248.25090549871732
2,4, 1, 4, 0,15, 0.00,60.00,Wednesday
128,4393309.616407061
202,2835681.661499103
651,1026868.9694648555
688,204740.87770730196
715,0.0
925,0.0
950,0.0
951,0.0
2,4, 1, 4, 0,16, 0.00,60.00,Wednesday
128,4393309.616407061
202,2835681.661499103
651,1026868.9694648555
688,204740.87770730196
715,0.0
925,0.0
950,0.0
951,0.0
2,4, 1, 4, 0,17, 0.00,60.00,Wednesday
128,4393309.616407061
202,2835681.661499103
651,1026868.9694648555
688,204740.87770730196
715,0.0
925,0.0
950,0.0
951,0.0
2,4, 1, 4, 0,18, 0.00,60.00,Wednesday
128,3417018.5905388244
202,2520605.921332536
651,1026868.9694648555
688,204740.87770730196
715,0.0
925,0.0
950,0.0
951,3860.8653457250757
2,4, 1, 4, 0,19, 0.00,60.00,Wednesday
128,2440727.5646705893
202,1890454.440999402
651,1026868.9694648555
688,204740.87770730196
715,0.0
925,0.0
950,0.0
951,8578.189252923645
2,4, 1, 4, 0,20, 0.00,60.00,Wednesday
128,2440727.5646705893
202,1890454.440999402
651,1026868.9694648555
688,204740.87770730196
715,0.0
925,0.0
950,0.0
951,10465.615452532915
2,4, 1, 4, 0,21, 0.00,60.00,Wednesday
128,1464436.5388023537
202,1575378.7008328347
651,1026868.9694648555
688,204740.87770730196
715,0.0
925,0.0
950,0.0
951,14794.979947291678
2,4, 1, 4, 0,22, 0.00,60.00,Wednesday
128,1464436.5388023537
202,1575378.7008328347
651,1026868.9694648555
688,204740.87770730196
715,0.0
925,0.0
950,0.0
951,16504.950382416424
2,4, 1, 4, 0,23, 0.00,60.00,Wednesday
128,488145.51293411787
202,1260302.960666268
651,1026868.9694648555
688,204740.87770730193
715,0.0
925,0.0
950,0.0
951,0.0
2,4, 1, 4, 0,24, 0.00,60.00,Wednesday
128,244072.75646705893
202,1260302.960666268
651,1026868.9694648555
688,204740.87770730196
715,0.0
925,0.0
950,0.0
951,460.31052852022503
2,5, 1, 5, 0, 1, 0.00,60.00,Thursday
128,244072.75646705893
202,1260302.960666268
651,1026868.9694648555
688,204740.87770730196
715,0.0
925,0.0
950,0.0
951,2211.8819880517694
2,5, 1, 5, 0, 2, 0.00,60.00,Thursday
128,244072.75646705893
202,1260302.960666268
651,1026868.9694648555
688,204740.87770730196
715,0.0
925,0.0
950,0.0
951,3391.7534925691107
2,5, 1, 5, 0, 3, 0.00,60.00,Thursday
128,244072.75646705893
202,1260302.960666268
651,1026868.9694648555
688,204740.87770730196
715,0.0
925,0.0
950,0.0
951,4357.874564188381
2,5, 1, 5, 0, 4, 0.00,60.00,Thursday
128,244072.75646705893
202,1260302.960666268
651,1026868.9694648555
688,204740.87770730196
715,0.0
925,0.0
950,0.0
951,5284.178184866345
2,5, 1, 5, 0, 5, 0.00,60.00,Thursday
128,244072.75646705893
202,1260302.960666268
651,1026868.9694648555
688,204740.87770730196
715,0.0
925,0.0
950,0.0
951,6229.591175182733
2,5, 1, 5, 0, 6, 0.00,60.00,Thursday
128,488145.51293411787
202,1260302.960666268
651,1026868.9694648555
688,204740.87770730196
715,0.0
925,0.0
950,0.0
951,6708.3599386376345
2,5, 1, 5, 0, 7, 0.00,60.00,Thursday
128,488145.51293411787
202,1260302.960666268
651,1026868.9694648555
688,204740.87770730193
715,0.0
925,0.0
950,0.0
951,39201.148209670224
2,5, 1, 5, 0, 8, 0.00,60.00,Thursday
128,1464436.5388023537
202,1260302.960666268
651,1026868.9694648555
688,204740.87770730196
715,0.0
925,0.0
950,0.0
951,28900.16561477046
2,5, 1, 5, 0, 9, 0.00,60.00,Thursday
128,4393309.616407061
202,2835681.661499103
651,1026868.9694648555
688,204740.87770730196
715,0.0
925,0.0
950,0.0
951,12930.820979985978
2,5, 1, 5, 0,10, 0.00,60.00,Thursday
128,4393309.616407061
202,2835681.661499103
651,1026868.9694648555
688,204740.87770730196
715,0.0
925,0.0
950,0.0
951,6955.157986608687
2,5, 1, 5, 0,11, 0.00,60.00,Thursday
128,4393309.616407061
202,2835681.661499103
651,1026868.9694648555
688,204740.87770730196
715,0.0
925,0.0
950,0.0
951,2753.305497745547
2,5, 1, 5, 0,12, 0.00,60.00,Thursday
128,4393309.616407061
202,2835681.661499103
651,1026868.9694648555
688,204740.87770730196
715,0.0
925,0.0
950,0.0
951,106.02971370426268
2,5, 1, 5, 0,13, 0.00,60.00,Thursday
128,4393309.616407061
202,2520605.921332536
651,1026868.9694648555
688,204740.87770730196
715,0.0
925,0.0
950,0.0
951,0.0
2,5, 1, 5, 0,14, 0.00,60.00,Thursday
128,4393309.616407061
202,2835681.661499103
651,1026868.9694648555
688,204740.87770730196
715,0.0
925,0.0
950,0.0
951,0.0
2,5, 1, 5, 0,15, 0.00,60.00,Thursday
128,4393309.616407061
202,2835681.661499103
651,1026868.9694648555
688,262615.79808889795
715,0.0
925,0.0
950,0.0
951,0.0
2,5, 1, 5, 0,16, 0.00,60.00,Thursday
128,4393309.616407061
202,2835681.661499103
651,1026868.9694648555
688,371202.9935442084
715,0.0
925,0.0
950,0.0
951,0.0
2,5, 1, 5, 0,17, 0.00,60.00,Thursday
128,4393309.616407061
202,2835681.661499103
651,1026868.9694648555
688,251358.10022241093
715,0.0
925,0.0
950,0.0
951,0.0
2,5, 1, 5, 0,18, 0.00,60.00,Thursday
128,3417018.5905388244
202,2520605.921332536
651,1026868.9694648555
688,204740.87770730196
715,0.0
925,0.0
950,0.0
951,0.0
2,5, 1, 5, 0,19, 0.00,60.00,Thursday
128,2440727.5646705893
202,1890454.440999402
651,1026868.9694648555
688,204740.87770730196
715,0.0
925,0.0
950,0.0
951,933.9482811463993
2,5, 1, 5, 0,20, 0.00,60.00,Thursday
128,2440727.5646705893
202,1890454.440999402
651,1026868.9694648555
688,204740.87770730196
715,0.0
925,0.0
950,0.0
951,4873.372804225179
2,5, 1, 5, 0,21, 0.00,60.00,Thursday
128,1464436.5388023537
202,1575378.7008328347
651,1026868.9694648555
688,204740.87770730196
715,0.0
925,0.0
950,0.0
951,10080.905827887005
2,5, 1, 5, 0,22, 0.00,60.00,Thursday
128,1464436.5388023537
202,1575378.7008328347
651,1026868.9694648555
688,204740.87770730196
715,0.0
925,0.0
950,0.0
951,11488.624112743066
2,5, 1, 5, 0,23, 0.00,60.00,Thursday
128,488145.51293411787
202,1260302.960666268
651,1026868.9694648555
688,204740.87770730193
715,0.0
925,0.0
950,0.0
951,0.0
2,5, 1, 5, 0,24, 0.00,60.00,Thursday
128,244072.75646705893
202,1260302.960666268
651,1026868.9694648555
688,204740.87770730196
715,0.0
925,0.0
950,0.0
951,0.0
2,6, 1, 6, 0, 1, 0.00,60.00,Friday
128,244072.75646705893
202,1260302.960666268
651,1026868.9694648555
688,204740.87770730196
715,0.0
925,0.0
950,0.0
951,0.0
2,6, 1, 6, 0, 2, 0.00,60.00,Friday
128,244072.75646705893
202,1260302.960666268
651,1026868.9694648555
688,204740.87770730196
715,0.0
925,0.0
950,0.0
951,900.8749327975197
2,6, 1, 6, 0, 3, 0.00,60.00,Friday
128,244072.75646705893
202,1260302.960666268
651,1026868.9694648555
688,204740.87770730196
715,0.0
925,0.0
950,0.0
951,2646.077861838378
2,6, 1, 6, 0, 4, 0.00,60.00,Friday
128,244072.75646705893
202,1260302.960666268
651,1026868.9694648555
688,204740.87770730196
715,0.0
925,0.0
950,0.0
951,3973.9284784740776
2,6, 1, 6, 0, 5, 0.00,60.00,Friday
128,244072.75646705893
202,1260302.960666268
651,1026868.9694648555
688,204740.87770730196
715,0.0
925,0.0
950,0.0
951,5205.150724524828
2,6, 1, 6, 0, 6, 0.00,60.00,Friday
128,488145.51293411787
202,1260302.960666268
651,1026868.9694648555
688,204740.87770730196
715,0.0
925,0.0
950,0.0
951,6106.856555971717
2,6, 1, 6, 0, 7, 0.00,60.00,Friday
128,488145.51293411787
202,1260302.960666268
651,1026868.9694648555
688,204740.87770730193
715,0.0
925,0.0
950,0.0
951,38282.34074930781
2,6, 1, 6, 0, 8, 0.00,60.00,Friday
128,1464436.5388023537
202,1260302.960666268
651,1026868.9694648555
688,204740.87770730196
715,0.0
925,0.0
950,0.0
951,29839.677960961413
2,6, 1, 6, 0, 9, 0.00,60.00,Friday
128,4393309.616407061
202,2835681.661499103
651,1026868.9694648555
688,204740.87770730196
715,0.0
925,0.0
950,0.0
951,18020.042071575062
2,6, 1, 6, 0,10, 0.00,60.00,Friday
128,4393309.616407061
202,2835681.661499103
651,1026868.9694648555
688,204740.87770730196
715,0.0
925,0.0
950,0.0
951,16430.92926234
2,6, 1, 6, 0,11, 0.00,60.00,Friday
128,4393309.616407061
202,2835681.661499103
651,1026868.9694648555
688,204740.87770730196
715,0.0
925,0.0
950,0.0
951,14757.36599810409
2,6, 1, 6, 0,12, 0.00,60.00,Friday
128,4393309.616407061
202,2835681.661499103
651,1026868.9694648555
688,204740.87770730196
715,0.0
925,0.0
950,0.0
951,13224.089540155559
2,6, 1, 6, 0,13, 0.00,60.00,Friday
128,4393309.616407061
202,2520605.921332536
651,1026868.9694648555
688,204740.87770730196
715,0.0
925,0.0
950,0.0
951,13387.06085650869
2,6, 1, 6, 0,14, 0.00,60.00,Friday
128,4393309.616407061
202,2835681.661499103
651,1026868.9694648555
688,204740.87770730196
715,0.0
925,0.0
950,0.0
951,11107.533684315376
2,6, 1, 6, 0,15, 0.00,60.00,Friday
128,4393309.616407061
202,2835681.661499103
651,1026868.9694648555
688,204740.87770730196
715,0.0
925,0.0
950,0.0
951,10673.896930157607
2,6, 1, 6, 0,16, 0.00,60.00,Friday
128,4393309.616407061
202,2835681.661499103
651,1026868.9694648555
688,204740.87770730196
715,0.0
925,0.0
950,0.0
951,10735.963802029213
2,6, 1, 6, 0,17, 0.00,60.00,Friday
128,4393309.616407061
202,2835681.661499103
651,1026868.9694648555
688,204740.87770730196
715,0.0
925,0.0
950,0.0
951,11354.795731540693
2,6, 1, 6, 0,18, 0.00,60.00,Friday
128,3417018.5905388244
202,2520605.921332536
651,1026868.9694648555
688,204740.87770730196
715,0.0
925,0.0
950,0.0
951,14888.423437085412
2,6, 1, 6, 0,19, 0.00,60.00,Friday
128,2440727.5646705893
202,1890454.440999402
651,1026868.9694648555
688,204740.87770730196
715,0.0
925,0.0
950,0.0
951,19078.673395626134
2,6, 1, 6, 0,20, 0.00,60.00,Friday
128,2440727.5646705893
202,1890454.440999402
651,1026868.9694648555
688,204740.87770730196
715,0.0
925,0.0
950,0.0
951,19977.149103278323
2,6, 1, 6, 0,21, 0.00,60.00,Friday
128,1464436.5388023537
202,1575378.7008328347
651,1026868.9694648555
688,204740.87770730196
715,0.0
925,0.0
950,0.0
951,23756.39312016049
2,6, 1, 6, 0,22, 0.00,60.00,Friday
128,1464436.5388023537
202,1575378.7008328347
651,1026868.9694648555
688,204740.87770730196
715,0.0
925,0.0
950,0.0
951,24610.177810198667
2,6, 1, 6, 0,23, 0.00,60.00,Friday
128,488145.51293411787
202,1260302.960666268
651,1026868.9694648555
688,204740.87770730193
715,0.0
925,0.0
950,0.0
951,1752.166130795647
2,6, 1, 6, 0,24, 0.00,60.00,Friday
128,244072.75646705893
202,1260302.960666268
651,1026868.9694648555
688,204740.87770730196
715,0.0
925,0.0
950,0.0
951,5768.719266122553
2,7, 1, 7, 0, 1, 0.00,60.00,Saturday
128,244072.75646705893
202,945227.220499701
651,1026868.9694648555
688,204740.87770730196
715,0.0
925,0.0
950,0.0
951,7700.880146936573
2,7, 1, 7, 0, 2, 0.00,60.00,Saturday
128,244072.75646705893
202,945227.220499701
651,1026868.9694648555
688,204740.87770730196
715,0.0
925,0.0
950,0.0
951,8937.396654235847
2,7, 1, 7, 0, 3, 0.00,60.00,Saturday
128,244072.75646705893
202,945227.220499701
651,1026868.9694648555
688,204740.87770730196
715,0.0
925,0.0
950,0.0
951,9971.4838575302
2,7, 1, 7, 0, 4, 0.00,60.00,Saturday
128,244072.75646705893
202,945227.220499701
651,1026868.9694648555
688,204740.87770730196
715,0.0
925,0.0
950,0.0
951,10836.801142480574
2,7, 1, 7, 0, 5, 0.00,60.00,Saturday
128,244072.75646705893
202,945227.220499701
651,1026868.9694648555
688,204740.87770730196
715,0.0
925,0.0
950,0.0
951,11632.0010290905
2,7, 1, 7, 0, 6, 0.00,60.00,Saturday
128,244072.75646705893
202,945227.220499701
651,1026868.9694648555
688,204740.87770730196
715,0.0
925,0.0
950,0.0
951,12511.883794834723
2,7, 1, 7, 0, 7, 0.00,60.00,Saturday
128,488145.51293411787
202,1260302.960666268
651,1026868.9694648555
688,204740.87770730193
715,0.0
925,0.0
950,0.0
951,47420.09663136632
2,7, 1, 7, 0, 8, 0.00,60.00,Saturday
128,488145.51293411787
202,1260302.960666268
651,1026868.9694648555
688,204740.87770730196
715,0.0
925,0.0
950,0.0
951,40626.11608821261
2,7, 1, 7, 0, 9, 0.00,60.00,Saturday
128,2440727.5646705893
202,1575378.7008328347
651,1026868.9694648555
688,204740.87770730196
715,0.0
925,0.0
950,0.0
951,29221.95079876749
2,7, 1, 7, 0,10, 0.00,60.00,Saturday
128,2440727.5646705893
202,1575378.7008328347
651,1026868.9694648555
688,204740.87770730196
715,0.0
925,0.0
950,0.0
951,27098.945199749833
2,7, 1, 7, 0,11, 0.00,60.00,Saturday
128,2440727.5646705893
202,1575378.7008328347
651,1026868.9694648555
688,204740.87770730196
715,0.0
925,0.0
950,0.0
951,24361.7850800747
2,7, 1, 7, 0,12, 0.00,60.00,Saturday
128,2440727.5646705893
202,1575378.7008328347
651,1026868.9694648555
688,204740.87770730196
715,0.0
925,0.0
950,0.0
951,21066.011455836106
2,7, 1, 7, 0,13, 0.00,60.00,Saturday
128,2440727.5646705893
202,1575378.7008328347
651,1026868.9694648555
688,204740.87770730196
715,0.0
925,0.0
950,0.0
951,15741.649305563393
2,7, 1, 7, 0,14, 0.00,60.00,Saturday
128,2440727.5646705893
202,1575378.7008328347
651,1026868.9694648555
688,204740.87770730196
715,0.0
925,0.0
950,0.0
951,12026.736427118649
2,7, 1, 7, 0,15, 0.00,60.00,Saturday
128,732218.2694011768
202,1102765.0905829843
651,1026868.9694648555
688,204740.87770730196
715,0.0
925,0.0
950,0.0
951,13606.340053539094
2,7, 1, 7, 0,16, 0.00,60.00,Saturday
128,732218.2694011768
202,1102765.0905829843
651,1026868.9694648555
688,204740.87770730196
715,0.0
925,0.0
950,0.0
951,12335.79000395156
2,7, 1, 7, 0,17, 0.00,60.00,Saturday
128,732218.2694011768
202,1102765.0905829843
651,1026868.9694648555
688,204740.87770730196
715,0.0
925,0.0
950,0.0
951,14656.166348202554
2,7, 1, 7, 0,18, 0.00,60.00,Saturday
128,244072.75646705893
202,945227.220499701
651,1026868.9694648555
688,204740.87770730196
715,0.0
925,0.0
950,0.0
951,18523.173015779368
2,7, 1, 7, 0,19, 0.00,60.00,Saturday
128,244072.75646705893
202,945227.220499701
651,1026868.9694648555
688,204740.87770730193
715,0.0
925,0.0
950,0.0
951,0.0
2,7, 1, 7, 0,20, 0.00,60.00,Saturday
128,244072.75646705893
202,945227.220499701
651,1026868.9694648555
688,204740.87770730196
715,0.0
925,0.0
950,0.0
951,1138.827392174219
2,7, 1, 7, 0,21, 0.00,60.00,Saturday
128,244072.75646705893
202,945227.220499701
651,1026868.9694648555
688,204740.87770730196
715,0.0
925,0.0
950,0.0
951,3176.5754776036333
2,7, 1, 7, 0,22, 0.00,60.00,Saturday
128,244072.75646705893
202,945227.220499701
651,1026868.9694648555
688,204740.87770730196
715,0.0
925,0.0
950,0.0
951,4386.5173754504785
2,7, 1, 7, 0,23, 0.00,60.00,Saturday
128,244072.75646705893
202,945227.220499701
651,1026868.9694648555
688,204740.87770730196
715,0.0
925,0.0
950,0.0
951,5404.480720817198
2,7, 1, 7, 0,24, 0.00,60.00,Saturday
128,244072.75646705893