Program Version,EnergyPlus, Version 24.2.0-94a887817b, YMD=2024.10.29 18:40
1,5,Environment Title[],Latitude[deg],Longitude[deg],Time Zone[],Elevation[m]
2,8,Day of Simulation[],Month[],Day of Month[],DST Indicator[1=yes 0=no],Hour[],StartMinute[],EndMinute[],DayType
3,5,Cumulative Day of Simulation[],Month[],Day of Month[],DST Indicator[1=yes 0=no],DayType  ! When Daily Report Variables Requested
4,2,Cumulative Days of Simulation[],Month[]  ! When Monthly Report Variables Requested
5,1,Cumulative Days of Simulation[] ! When Run Period Report Variables Requested
6,1,Calendar Year of Simulation[] ! When Annual Report Variables Requested
128,1,TEST_OFFICE_0,Zone Lights Electricity Energy [J] !Hourly
202,1,TEST_OFFICE_0,Zone Electric Equipment Electricity Energy [J] !Hourly
484,1,PARALLEL PIU ELEC RHT FAN,Fan Electricity Energy [J] !Hourly
521,1,FAN VARIABLE VOLUME 1,Fan Electricity Energy [J] !Hourly
547,1,PARALLEL PIU ELEC RHT COIL,Heating Coil Electricity Energy [J] !Hourly
660,1,CHILLER ELECTRIC EIR 1,Chiller Electricity Energy [J] !Hourly
883,1,BOILER HOT WATER 1,Boiler NaturalGas Energy [J] !Hourly
958,1,PUMP VARIABLE SPEED 2,Pump Electricity Energy [J] !Hourly
983,1,PUMP VARIABLE SPEED 3,Pump Electricity Energy [J] !Hourly
984,1,PUMP VARIABLE SPEED 1,Pump Electricity Energy [J] !Hourly
End of Data Dictionary
1,RUN PERIOD 1,  37.62,-122.40,  -8.00,   2.00
2,1, 1, 1, 0, 1, 0.00,60.00,Sunday
128,244072.75646705893
202,1260302.960666268
484,517819.77295707946
521,110785.63290393612
547,0.0
660,0.0
883,0.0
958,0.0
983,0.0
984,0.0
2,1, 1, 1, 0, 2, 0.00,60.00,Sunday
128,244072.75646705893
202,1260302.960666268
484,1035639.5459141589
521,110785.63290393612
547,450027.5905337005
660,0.0
883,0.0
958,0.0
983,0.0
984,0.0
2,1, 1, 1, 0, 3, 0.00,60.00,Sunday
128,244072.75646705893
202,1260302.960666268
484,1035639.5459141589
521,110785.63290393612
547,1691355.3234070735
660,0.0
883,0.0
958,0.0
983,0.0
984,0.0
2,1, 1, 1, 0, 4, 0.00,60.00,Sunday
128,244072.75646705893
202,1260302.960666268
484,1035639.5459141589
521,110785.63290393612
547,2823885.163328266
660,0.0
883,0.0
958,0.0
983,0.0
984,0.0
2,1, 1, 1, 0, 5, 0.00,60.00,Sunday
128,244072.75646705893
202,1260302.960666268
484,1035639.5459141589
521,110785.63290393612
547,4121565.459396098
660,0.0
883,0.0
958,0.0
983,0.0
984,0.0
2,1, 1, 1, 0, 6, 0.00,60.00,Sunday
128,488145.51293411787
202,1260302.960666268
484,1035639.5459141589
521,110785.63290393612
547,4828227.337282954
660,0.0
883,0.0
958,0.0
983,0.0
984,0.0
2,1, 1, 1, 0, 7, 0.00,60.00,Sunday
128,488145.51293411787
202,1260302.960666268
484,1018378.8868155896
521,110785.63290393612
547,18702592.166640922
660,0.0
883,0.0
958,0.0
983,0.0
984,0.0
2,1, 1, 1, 0, 8, 0.00,60.00,Sunday
128,1464436.5388023537
202,1260302.960666268
484,1035639.5459141589
521,110785.63290393612
547,12571866.417616691
660,0.0
883,0.0
958,0.0
983,0.0
984,0.0
2,1, 1, 1, 0, 9, 0.00,60.00,Sunday
128,4393309.616407061
202,2835681.661499103
484,1035639.5459141589
521,110785.63290393612
547,1668498.5186714195
660,0.0
883,0.0
958,0.0
983,0.0
984,0.0
2,1, 1, 1, 0,10, 0.00,60.00,Sunday
128,4393309.616407061
202,2835681.661499103
484,0.0
521,110785.63290393612
547,0.0
660,0.0
883,0.0
958,0.0
983,0.0
984,0.0
2,1, 1, 1, 0,11, 0.00,60.00,Sunday
128,4393309.616407061
202,2835681.661499103
484,172606.59098569315
521,110785.63290393612
547,0.0
660,0.0
883,0.0
958,0.0
983,0.0
984,0.0
2,1, 1, 1, 0,12, 0.00,60.00,Sunday
128,4393309.616407061
202,2835681.661499103
484,345213.1819713863
521,115866.10148689478
547,0.0
660,0.0
883,0.0
958,0.0
983,0.0
984,0.0
2,1, 1, 1, 0,13, 0.00,60.00,Sunday
128,4393309.616407061
202,2520605.921332536
484,0.0
521,122270.17915180362
547,0.0
660,0.0
883,0.0
958,0.0
983,0.0
984,0.0
2,1, 1, 1, 0,14, 0.00,60.00,Sunday
128,4393309.616407061
202,2835681.661499103
484,0.0
521,143279.07958342182
547,0.0
660,0.0
883,0.0
958,0.0
983,0.0
984,0.0
2,1, 1, 1, 0,15, 0.00,60.00,Sunday
128,4393309.616407061
202,2835681.661499103
484,0.0
521,163614.97259752481
547,0.0
660,177611.45300278772
883,0.0
958,3178.8235871943407
983,316168.45944687503
984,0.0
2,1, 1, 1, 0,16, 0.00,60.00,Sunday
128,4393309.616407061
202,2835681.661499103
484,0.0
521,168318.89799459503
547,0.0
660,530660.2006330629
883,0.0
958,9367.897969264126
983,632310.1565868112
984,0.0
2,1, 1, 1, 0,17, 0.00,60.00,Sunday
128,4393309.616407061
202,2835681.661499103
484,0.0
521,137029.6508798089
547,0.0
660,74350.9283005627
883,0.0
958,1308.765371522747
983,210762.37575695588
984,0.0
2,1, 1, 1, 0,18, 0.00,60.00,Sunday
128,3417018.5905388244
202,2520605.921332536
484,517819.77295707946
521,113126.2281267865
547,0.0
660,0.0
883,0.0
958,0.0
983,0.0
984,0.0
2,1, 1, 1, 0,19, 0.00,60.00,Sunday
128,2440727.5646705893
202,1890454.440999402
484,0.0
521,110785.63290393612
547,0.0
660,0.0
883,0.0
958,0.0
983,0.0
984,0.0
2,1, 1, 1, 0,20, 0.00,60.00,Sunday
128,2440727.5646705893
202,1890454.440999402
484,0.0
521,110785.63290393612
547,0.0
660,0.0
883,0.0
958,0.0
983,0.0
984,0.0
2,1, 1, 1, 0,21, 0.00,60.00,Sunday
128,1464436.5388023537
202,1575378.7008328347
484,1035639.5459141589
521,110785.63290393612
547,1657157.3219457958
660,0.0
883,0.0
958,0.0
983,0.0
984,0.0
2,1, 1, 1, 0,22, 0.00,60.00,Sunday
128,1464436.5388023537
202,1575378.7008328347
484,1035639.5459141589
521,110785.63290393612
547,3039857.295061235
660,0.0
883,0.0
958,0.0
983,0.0
984,0.0
2,1, 1, 1, 0,23, 0.00,60.00,Sunday
128,488145.51293411787
202,1260302.960666268
484,0.0
521,110785.63290393612
547,0.0
660,0.0
883,0.0
958,0.0
983,0.0
984,0.0
2,1, 1, 1, 0,24, 0.00,60.00,Sunday
128,244072.75646705893
202,1260302.960666268
484,0.0
521,110785.63290393612
547,0.0
660,0.0
883,0.0
958,0.0
983,0.0
984,0.0
2,2, 1, 2, 0, 1, 0.00,60.00,Monday
128,244072.75646705893
202,1260302.960666268
484,0.0
521,110785.63290393612
547,0.0
660,0.0
883,0.0
958,0.0
983,0.0
984,0.0
2,2, 1, 2, 0, 2, 0.00,60.00,Monday
128,244072.75646705893
202,1260302.960666268
484,1035639.5459141589
521,110785.63290393612
547,506863.34083434567
660,0.0
883,0.0
958,0.0
983,0.0
984,0.0
2,2, 1, 2, 0, 3, 0.00,60.00,Monday
128,244072.75646705893
202,1260302.960666268
484,1035639.5459141589
521,110785.63290393612
547,2194257.447005933
660,0.0
883,0.0
958,0.0
983,0.0
984,0.0
2,2, 1, 2, 0, 4, 0.00,60.00,Monday
128,244072.75646705893
202,1260302.960666268
484,1035639.5459141589
521,110785.63290393612
547,3683386.406630545
660,0.0
883,0.0
958,0.0
983,0.0
984,0.0
2,2, 1, 2, 0, 5, 0.00,60.00,Monday
128,244072.75646705893
202,1260302.960666268
484,1035639.5459141589
521,110785.63290393612
547,4412039.482719272
660,0.0
883,0.0
958,0.0
983,0.0
984,0.0
2,2, 1, 2, 0, 6, 0.00,60.00,Monday
128,488145.51293411787
202,1260302.960666268
484,1035639.5459141589
521,110785.63290393612
547,4105645.462975412
660,0.0
883,0.0
958,0.0
983,0.0
984,0.0
2,2, 1, 2, 0, 7, 0.00,60.00,Monday
128,488145.51293411787
202,1260302.960666268
484,1018378.8868155896
521,110785.63290393612
547,18140473.01817228
660,0.0
883,0.0
958,0.0
983,0.0
984,0.0
2,2, 1, 2, 0, 8, 0.00,60.00,Monday
128,1464436.5388023537
202,1260302.960666268
484,1035639.5459141589
521,110785.63290393612
547,12086662.92171489
660,0.0
883,0.0
958,0.0
983,0.0
984,0.0
2,2, 1, 2, 0, 9, 0.00,60.00,Monday
128,4393309.616407061
202,2835681.661499103
484,863032.9549284658
521,110785.63290393612
547,1387277.8235537037
660,0.0
883,0.0
958,0.0
983,0.0
984,0.0
2,2, 1, 2, 0,10, 0.00,60.00,Monday
128,4393309.616407061
202,2835681.661499103
484,0.0
521,110785.63290393612
547,0.0
660,0.0
883,0.0
958,0.0
983,0.0
984,0.0
2,2, 1, 2, 0,11, 0.00,60.00,Monday
128,4393309.616407061
202,2835681.661499103
484,172606.59098569315
521,110901.03329467843
547,0.0
660,82897.26002083306
883,0.0
958,1477.715788984095
983,526880.5862602277
984,0.0
2,2, 1, 2, 0,12, 0.00,60.00,Monday
128,4393309.616407061
202,2835681.661499103
484,0.0
521,122378.09001722376
547,0.0
660,274899.62691161776
883,0.0
958,4867.221898101975
983,632268.9578911145
984,0.0
2,2, 1, 2, 0,13, 0.00,60.00,Monday
128,4393309.616407061
202,2520605.921332536
484,0.0
521,131479.95273151717
547,0.0
660,340136.58358268347
883,0.0
958,5962.8502945754435
983,632298.5826243779
984,0.0
2,2, 1, 2, 0,14, 0.00,60.00,Monday
128,4393309.616407061
202,2835681.661499103
484,0.0
521,149432.70968220267
547,0.0
660,450566.34804381593
883,0.0
958,7858.088476193821
983,632327.0306507518
984,0.0
2,2, 1, 2, 0,15, 0.00,60.00,Monday
128,4393309.616407061
202,2835681.661499103
484,0.0
521,160528.9810712073
547,0.0
660,172164.32722803255
883,0.0
958,3032.312019479001
983,421567.0812648805
984,0.0
2,2, 1, 2, 0,16, 0.00,60.00,Monday
128,4393309.616407061
202,2835681.661499103
484,0.0
521,163662.723383611
547,0.0
660,21144.008326309744
883,0.0
958,389.0174317217137
983,210776.55163895682
984,0.0
2,2, 1, 2, 0,17, 0.00,60.00,Monday
128,4393309.616407061
202,2835681.661499103
484,0.0
521,136245.60445861277
547,0.0
660,0.0
883,0.0
958,0.0
983,0.0
984,0.0
2,2, 1, 2, 0,18, 0.00,60.00,Monday
128,3417018.5905388244
202,2520605.921332536
484,517819.77295707946
521,113346.25566281813
547,0.0
660,0.0
883,0.0
958,0.0
983,0.0
984,0.0
2,2, 1, 2, 0,19, 0.00,60.00,Monday
128,2440727.5646705893
202,1890454.440999402
484,0.0
521,110785.63290393612
547,0.0
660,0.0
883,0.0
958,0.0
983,0.0
984,0.0
2,2, 1, 2, 0,20, 0.00,60.00,Monday
128,2440727.5646705893
202,1890454.440999402
484,0.0
521,110785.63290393612
547,0.0
660,0.0
883,0.0
958,0.0
983,0.0
984,0.0
2,2, 1, 2, 0,21, 0.00,60.00,Monday
128,1464436.5388023537
202,1575378.7008328347
484,949336.2504213124
521,110785.63290393612
547,1046810.936139739
660,0.0
883,0.0
958,0.0
983,0.0
984,0.0
2,2, 1, 2, 0,22, 0.00,60.00,Monday
128,1464436.5388023537
202,1575378.7008328347
484,1035639.5459141589
521,110785.63290393612
547,2718674.281963468
660,0.0
883,0.0
958,0.0
983,0.0
984,0.0
2,2, 1, 2, 0,23, 0.00,60.00,Monday
128,488145.51293411787
202,1260302.960666268
484,0.0
521,110785.63290393612
547,0.0
660,0.0
883,0.0
958,0.0
983,0.0
984,0.0
2,2, 1, 2, 0,24, 0.00,60.00,Monday
128,244072.75646705893
202,1260302.960666268
484,0.0
521,110785.63290393612
547,0.0
660,0.0
883,0.0
958,0.0
983,0.0
984,0.0
2,3, 1, 3, 0, 1, 0.00,60.00,Tuesday
128,244072.75646705893
202,1260302.960666268
484,0.0
521,110785.63290393612
547,0.0
660,0.0
883,0.0
958,0.0
983,0.0
984,0.0
2,3, 1, 3, 0, 2, 0.00,60.00,Tuesday
128,244072.75646705893
202,1260302.960666268
484,172606.59098569315
521,110785.63290393612
547,0.0
660,0.0
883,0.0
958,0.0
983,0.0
984,0.0
2,3, 1, 3, 0, 3, 0.00,60.00,Tuesday
128,244072.75646705893
202,1260302.960666268
484,517819.77295707946
521,110785.63290393612
547,0.0
660,0.0
883,0.0
958,0.0
983,0.0
984,0.0
2,3, 1, 3, 0, 4, 0.00,60.00,Tuesday
128,244072.75646705893
202,1260302.960666268
484,345213.1819713863
521,110785.63290393612
547,0.0
660,97110.80649756698
883,0.0
958,1797.0149749105747
983,632253.6272021753
984,0.0
2,3, 1, 3, 0, 5, 0.00,60.00,Tuesday
128,244072.75646705893
202,1260302.960666268
484,863032.9549284658
521,110785.63290393612
547,0.0
660,106053.77960274759
883,0.0
958,1952.307469292658
983,632255.9424570347
984,0.0
2,3, 1, 3, 0, 6, 0.00,60.00,Tuesday
128,488145.51293411787
202,1260302.960666268
484,1035639.5459141589
521,110785.63290393612
547,0.0
660,20688.87842306425
883,0.0
958,384.71047430828406
983,421502.12260141515
984,0.0
2,3, 1, 3, 0, 7, 0.00,60.00,Tuesday
128,488145.51293411787
202,1260302.960666268
484,1018378.8868155896
521,110785.63290393612
547,14103632.263671465
660,0.0
883,0.0
958,0.0
983,0.0
984,0.0
2,3, 1, 3, 0, 8, 0.00,60.00,Tuesday
128,1464436.5388023537
202,1260302.960666268
484,1035639.5459141589
521,110785.63290393612
547,8256898.33237526
660,0.0
883,0.0
958,0.0
983,0.0
984,0.0
2,3, 1, 3, 0, 9, 0.00,60.00,Tuesday
128,4393309.616407061
202,2835681.661499103
484,345213.1819713863
521,110785.63290393612
547,50878.82022431719
660,0.0
883,0.0
958,0.0
983,0.0
984,0.0
2,3, 1, 3, 0,10, 0.00,60.00,Tuesday
128,4393309.616407061
202,2835681.661499103
484,0.0
521,110785.63290393612
547,0.0
660,45686.3846449094
883,0.0
958,852.9170515930597
983,421494.5715371882
984,0.0
2,3, 1, 3, 0,11, 0.00,60.00,Tuesday
128,4393309.616407061
202,2835681.661499103
484,345213.1819713863
521,113748.85633951468
547,0.0
660,43536.92125790894
883,0.0
958,815.6899171598033
983,526876.53917788
984,0.0
2,3, 1, 3, 0,12, 0.00,60.00,Tuesday
128,4393309.616407061
202,2835681.661499103
484,0.0
521,125109.15185943965
547,0.0
660,277579.2771690473
883,0.0
958,5095.278945920792
983,632270.211317122
984,0.0
2,3, 1, 3, 0,13, 0.00,60.00,Tuesday
128,4393309.616407061
202,2520605.921332536
484,0.0
521,133252.94663653514
547,0.0
660,682163.8428911644
883,0.0
958,11161.926620539109
983,632298.6748542427
984,0.0
2,3, 1, 3, 0,14, 0.00,60.00,Tuesday
128,4393309.616407061
202,2835681.661499103
484,0.0
521,154772.16116849723
547,0.0
660,1173393.6301147786
883,0.0
958,17642.46633663979
983,632335.9958536457
984,0.0
2,3, 1, 3, 0,15, 0.00,60.00,Tuesday
128,4393309.616407061
202,2835681.661499103
484,0.0
521,162374.12364810627
547,0.0
660,1369362.2993846398
883,0.0
958,19951.017061548067
983,632350.0645850836
984,0.0
2,3, 1, 3, 0,16, 0.00,60.00,Tuesday
128,4393309.616407061
202,2835681.661499103
484,0.0
521,157734.8562645615
547,0.0
660,886838.736660406
883,0.0
958,13283.13498934998
983,632313.8705230636
984,0.0
2,3, 1, 3, 0,17, 0.00,60.00,Tuesday
128,4393309.616407061
202,2835681.661499103
484,0.0
521,136548.17270918982
547,0.0
660,396389.44191605836
883,0.0
958,6464.306927762022
983,632262.4285329641
984,0.0
2,3, 1, 3, 0,18, 0.00,60.00,Tuesday
128,3417018.5905388244
202,2520605.921332536
484,172606.59098569315
521,114569.31377382431
547,0.0
660,132428.59977461316
883,0.0
958,2234.441738512825
983,632244.7694549477
984,0.0
2,3, 1, 3, 0,19, 0.00,60.00,Tuesday
128,2440727.5646705893
202,1890454.440999402
484,172606.59098569315
521,110785.63290393612
547,0.0
660,19862.576178640556
883,0.0
958,343.3730034181609
983,421490.0842744166
984,0.0
2,3, 1, 3, 0,20, 0.00,60.00,Tuesday
128,2440727.5646705893
202,1890454.440999402
484,0.0
521,110785.63290393612
547,0.0
660,0.0
883,0.0
958,0.0
983,0.0
984,0.0
2,3, 1, 3, 0,21, 0.00,60.00,Tuesday
128,1464436.5388023537
202,1575378.7008328347
484,949336.2504213124
521,110785.63290393612
547,797732.3163646123
660,0.0
883,0.0
958,0.0
983,0.0
984,0.0
2,3, 1, 3, 0,22, 0.00,60.00,Tuesday
128,1464436.5388023537
202,1575378.7008328347
484,1035639.5459141589
521,110785.63290393612
547,2332636.5835244223
660,0.0
883,0.0
958,0.0
983,0.0
984,0.0
2,3, 1, 3, 0,23, 0.00,60.00,Tuesday
128,488145.51293411787
202,1260302.960666268
484,0.0
521,110785.63290393612
547,0.0
660,0.0
883,0.0
958,0.0
983,0.0
984,0.0
2,3, 1, 3, 0,24, 0.00,60.00,Tuesday
128,244072.75646705893
202,1260302.960666268
484,0.0
521,110785.63290393612
547,0.0
660,0.0
883,0.0
958,0.0
983,0.0
984,0.0
2,4, 1, 4, 0, 1, 0.00,60.00,Wednesday
128,244072.75646705893
202,1260302.960666268
484,0.0
521,110785.63290393612
547,0.0
660,0.0
883,0.0
958,0.0
983,0.0
984,0.0
2,4, 1, 4, 0, 2, 0.00,60.00,Wednesday
128,244072.75646705893
202,1260302.960666268
484,345213.1819713863
521,110785.63290393612
547,0.0
660,0.0
883,0.0
958,0.0
983,0.0
984,0.0
2,4, 1, 4, 0, 3, 0.00,60.00,Wednesday
128,244072.75646705893
202,1260302.960666268
484,1035639.5459141589
521,110785.63290393612
547,233497.1057792068
660,0.0
883,0.0
958,0.0
983,0.0
984,0.0
2,4, 1, 4, 0, 4, 0.00,60.00,Wednesday
128,244072.75646705893
202,1260302.960666268
484,1035639.5459141589
521,110785.63290393612
547,1666833.3391473975
660,0.0
883,0.0
958,0.0
983,0.0
984,0.0
2,4, 1, 4, 0, 5, 0.00,60.00,Wednesday
128,244072.75646705893
202,1260302.960666268
484,1035639.5459141589
521,110785.63290393612
547,3371474.3669296806
660,0.0
883,0.0
958,0.0
983,0.0
984,0.0
2,4, 1, 4, 0, 6, 0.00,60.00,Wednesday
128,488145.51293411787
202,1260302.960666268
484,1035639.5459141589
521,110785.63290393612
547,3749866.757110013
660,0.0
883,0.0
958,0.0
983,0.0
984,0.0
2,4, 1, 4, 0, 7, 0.00,60.00,Wednesday
128,488145.51293411787
202,1260302.960666268
484,1018378.8868155896
521,110785.63290393612
547,18177157.66469595
660,0.0
883,0.0
958,0.0
983,0.0
984,0.0
2,4, 1, 4, 0, 8, 0.00,60.00,Wednesday
128,1464436.5388023537
202,1260302.960666268
484,1035639.5459141589
521,110785.63290393612
547,12322616.415448138
660,0.0
883,0.0
958,0.0
983,0.0
984,0.0
2,4, 1, 4, 0, 9, 0.00,60.00,Wednesday
128,4393309.616407061
202,2835681.661499103
484,1035639.5459141589
521,110785.63290393612
547,3182492.6683247373
660,0.0
883,0.0
958,0.0
983,0.0
984,0.0
2,4, 1, 4, 0,10, 0.00,60.00,Wednesday
128,4393309.616407061
202,2835681.661499103
484,1035639.5459141589
521,110785.63290393612
547,1288410.6472560754
660,0.0
883,0.0
958,0.0
983,0.0
984,0.0
2,4, 1, 4, 0,11, 0.00,60.00,Wednesday
128,4393309.616407061
202,2835681.661499103
484,517819.77295707946
521,110785.63290393612
547,34154.560140123445
660,0.0
883,0.0
958,0.0
983,0.0
984,0.0
2,4, 1, 4, 0,12, 0.00,60.00,Wednesday
128,4393309.616407061
202,2835681.661499103
484,0.0
521,110785.63290393612
547,0.0
660,0.0
883,0.0
958,0.0
983,0.0
984,0.0
2,4, 1, 4, 0,13, 0.00,60.00,Wednesday
128,4393309.616407061
202,2520605.921332536
484,0.0
521,110785.63290393612
547,0.0
660,0.0
883,0.0
958,0.0
983,0.0
984,0.0
2,4, 1, 4, 0,14, 0.00,60.00,Wednesday
128,4393309.616407061
202,2835681.661499103
484,172606.59098569315
521,121655.6330099334
547,0.0
660,0.0
883,0.0
958,0.0
983,0.0
984,0.0
2,4, 1, 4, 0,15, 0.00,60.00,Wednesday
128,4393309.616407061
202,2835681.661499103
484,0.0
521,125535.46131057113
547,0.0
660,0.0
883,0.0
958,0.0
983,0.0
984,0.0
2,4, 1, 4, 0,16, 0.00,60.00,Wednesday
128,4393309.616407061
202,2835681.661499103
484,0.0
521,122679.32763514499
547,0.0
660,0.0
883,0.0
958,0.0
983,0.0
984,0.0
2,4, 1, 4, 0,17, 0.00,60.00,Wednesday
128,4393309.616407061
202,2835681.661499103
484,690426.3639427726
521,112459.25234230809
547,0.0
660,0.0
883,0.0
958,0.0
983,0.0
984,0.0
2,4, 1, 4, 0,18, 0.00,60.00,Wednesday
128,3417018.5905388244
202,2520605.921332536
484,0.0
521,110785.63290393612
547,0.0
660,0.0
883,0.0
958,0.0
983,0.0
984,0.0
2,4, 1, 4, 0,19, 0.00,60.00,Wednesday
128,2440727.5646705893
202,1890454.440999402
484,690426.3639427726
521,110785.63290393612
547,99015.10379074127
660,0.0
883,0.0
958,0.0
983,0.0
984,0.0
2,4, 1, 4, 0,20, 0.00,60.00,Wednesday
128,2440727.5646705893
202,1890454.440999402
484,1035639.5459141589
521,110785.63290393612
547,1257963.010591017
660,0.0
883,0.0
958,0.0
983,0.0
984,0.0
2,4, 1, 4, 0,21, 0.00,60.00,Wednesday
128,1464436.5388023537
202,1575378.7008328347
484,1035639.5459141589
521,110785.63290393612
547,4123171.8474422405
660,0.0
883,0.0
958,0.0
983,0.0
984,0.0
2,4, 1, 4, 0,22, 0.00,60.00,Wednesday
128,1464436.5388023537
202,1575378.7008328347
484,1035639.5459141589
521,110785.63290393612
547,5032118.963893687
660,0.0
883,0.0
958,0.0
983,0.0
984,0.0
2,4, 1, 4, 0,23, 0.00,60.00,Wednesday
128,488145.51293411787
202,1260302.960666268
484,0.0
521,110785.63290393612
547,0.0
660,0.0
883,0.0
958,0.0
983,0.0
984,0.0
2,4, 1, 4, 0,24, 0.00,60.00,Wednesday
128,244072.75646705893
202,1260302.960666268
484,0.0
521,110785.63290393612
547,0.0
660,0.0
883,0.0
958,0.0
983,0.0
984,0.0
2,5, 1, 5, 0, 1, 0.00,60.00,Thursday
128,244072.75646705893
202,1260302.960666268
484,1035639.5459141589
521,110785.63290393612
547,170420.69864818206
660,0.0
883,0.0
958,0.0
983,0.0
984,0.0
2,5, 1, 5, 0, 2, 0.00,60.00,Thursday
128,244072.75646705893
202,1260302.960666268
484,1035639.5459141589
521,110785.63290393612
547,1170314.6655160135
660,0.0
883,0.0
958,0.0
983,0.0
984,0.0
2,5, 1, 5, 0, 3, 0.00,60.00,Thursday
128,244072.75646705893
202,1260302.960666268
484,1035639.5459141589
521,110785.63290393612
547,2717961.16133273
660,0.0
883,0.0
958,0.0
983,0.0
984,0.0
2,5, 1, 5, 0, 4, 0.00,60.00,Thursday
128,244072.75646705893
202,1260302.960666268
484,1035639.5459141589
521,110785.63290393612
547,4303088.36313267
660,0.0
883,0.0
958,0.0
983,0.0
984,0.0
2,5, 1, 5, 0, 5, 0.00,60.00,Thursday
128,244072.75646705893
202,1260302.960666268
484,1035639.5459141589
521,110785.63290393612
547,5066138.942231461
660,0.0
883,0.0
958,0.0
983,0.0
984,0.0
2,5, 1, 5, 0, 6, 0.00,60.00,Thursday
128,488145.51293411787
202,1260302.960666268
484,1035639.5459141589
521,110785.63290393612
547,5405409.01202166
660,0.0
883,0.0
958,0.0
983,0.0
984,0.0
2,5, 1, 5, 0, 7, 0.00,60.00,Thursday
128,488145.51293411787
202,1260302.960666268
484,1018378.8868155896
521,110785.63290393612
547,19542895.628890514
660,0.0
883,0.0
958,0.0
983,0.0
984,0.0
2,5, 1, 5, 0, 8, 0.00,60.00,Thursday
128,1464436.5388023537
202,1260302.960666268
484,1035639.5459141589
521,110785.63290393612
547,13257319.915869063
660,0.0
883,0.0
958,0.0
983,0.0
984,0.0
2,5, 1, 5, 0, 9, 0.00,60.00,Thursday
128,4393309.616407061
202,2835681.661499103
484,1035639.5459141589
521,110785.63290393612
547,3593043.874035946
660,0.0
883,0.0
958,0.0
983,0.0
984,0.0
2,5, 1, 5, 0,10, 0.00,60.00,Thursday
128,4393309.616407061
202,2835681.661499103
484,1035639.5459141589
521,110785.63290393612
547,941986.600631017
660,0.0
883,0.0
958,0.0
983,0.0
984,0.0
2,5, 1, 5, 0,11, 0.00,60.00,Thursday
128,4393309.616407061
202,2835681.661499103
484,0.0
521,110785.63290393612
547,0.0
660,0.0
883,0.0
958,0.0
983,0.0
984,0.0
2,5, 1, 5, 0,12, 0.00,60.00,Thursday
128,4393309.616407061
202,2835681.661499103
484,0.0
521,110785.63290393612
547,0.0
660,0.0
883,0.0
958,0.0
983,0.0
984,0.0
2,5, 1, 5, 0,13, 0.00,60.00,Thursday
128,4393309.616407061
202,2520605.921332536
484,345213.1819713863
521,113307.62424688
547,0.0
660,0.0
883,0.0
958,0.0
983,0.0
984,0.0
2,5, 1, 5, 0,14, 0.00,60.00,Thursday
128,4393309.616407061
202,2835681.661499103
484,0.0
521,138373.1557443417
547,0.0
660,0.0
883,0.0
958,0.0
983,0.0
984,0.0
2,5, 1, 5, 0,15, 0.00,60.00,Thursday
128,4393309.616407061
202,2835681.661499103
484,0.0
521,154523.55182856874
547,0.0
660,0.0
883,0.0
958,0.0
983,0.0
984,0.0
2,5, 1, 5, 0,16, 0.00,60.00,Thursday
128,4393309.616407061
202,2835681.661499103
484,0.0
521,156736.61740479077
547,0.0
660,0.0
883,0.0
958,0.0
983,0.0
984,0.0
2,5, 1, 5, 0,17, 0.00,60.00,Thursday
128,4393309.616407061
202,2835681.661499103
484,0.0
521,130313.11992858283
547,0.0
660,0.0
883,0.0
958,0.0
983,0.0
984,0.0
2,5, 1, 5, 0,18, 0.00,60.00,Thursday
128,3417018.5905388244
202,2520605.921332536
484,1035639.5459141589
521,112325.75421637329
547,0.0
660,0.0
883,0.0
958,0.0
983,0.0
984,0.0
2,5, 1, 5, 0,19, 0.00,60.00,Thursday
128,2440727.5646705893
202,1890454.440999402
484,0.0
521,110785.63290393612
547,0.0
660,0.0
883,0.0
958,0.0
983,0.0
984,0.0
2,5, 1, 5, 0,20, 0.00,60.00,Thursday
128,2440727.5646705893
202,1890454.440999402
484,690426.3639427726
521,110785.63290393612
547,52030.19453499479
660,0.0
883,0.0
958,0.0
983,0.0
984,0.0
2,5, 1, 5, 0,21, 0.00,60.00,Thursday
128,1464436.5388023537
202,1575378.7008328347
484,1035639.5459141589
521,110785.63290393612
547,2909040.874434751
660,0.0
883,0.0
958,0.0
983,0.0
984,0.0
2,5, 1, 5, 0,22, 0.00,60.00,Thursday
128,1464436.5388023537
202,1575378.7008328347
484,1035639.5459141589
521,110785.63290393612
547,4059675.650448179
660,0.0
883,0.0
958,0.0
983,0.0
984,0.0
2,5, 1, 5, 0,23, 0.00,60.00,Thursday
128,488145.51293411787
202,1260302.960666268
484,0.0
521,110785.63290393612
547,0.0
660,0.0
883,0.0
958,0.0
983,0.0
984,0.0
2,5, 1, 5, 0,24, 0.00,60.00,Thursday
128,244072.75646705893
202,1260302.960666268
484,0.0
521,110785.63290393612
547,0.0
660,0.0
883,0.0
958,0.0
983,0.0
984,0.0
2,6, 1, 6, 0, 1, 0.00,60.00,Friday
128,244072.75646705893
202,1260302.960666268
484,690426.3639427726
521,110785.63290393612
547,0.0
660,0.0
883,0.0
958,0.0
983,0.0
984,0.0
2,6, 1, 6, 0, 2, 0.00,60.00,Friday
128,244072.75646705893
202,1260302.960666268
484,1035639.5459141589
521,110785.63290393612
547,859822.8497174818
660,0.0
883,0.0
958,0.0
983,0.0
984,0.0
2,6, 1, 6, 0, 3, 0.00,60.00,Friday
128,244072.75646705893
202,1260302.960666268
484,1035639.5459141589
521,110785.63290393612
547,1962175.2221894604
660,0.0
883,0.0
958,0.0
983,0.0
984,0.0
2,6, 1, 6, 0, 4, 0.00,60.00,Friday
128,244072.75646705893
202,1260302.960666268
484,1035639.5459141589
521,110785.63290393612
547,2721543.0737510067
660,0.0
883,0.0
958,0.0
983,0.0
984,0.0
2,6, 1, 6, 0, 5, 0.00,60.00,Friday
128,244072.75646705893
202,1260302.960666268
484,1035639.5459141589
521,110785.63290393612
547,3497825.5818309486
660,0.0
883,0.0
958,0.0
983,0.0
984,0.0
2,6, 1, 6, 0, 6, 0.00,60.00,Friday
128,488145.51293411787
202,1260302.960666268
484,1035639.5459141589
521,110785.63290393612
547,3875365.714840024
660,0.0
883,0.0
958,0.0
983,0.0
984,0.0
2,6, 1, 6, 0, 7, 0.00,60.00,Friday
128,488145.51293411787
202,1260302.960666268
484,1018378.8868155896
521,110785.63290393612
547,18336801.071375426
660,0.0
883,0.0
958,0.0
983,0.0
984,0.0
2,6, 1, 6, 0, 8, 0.00,60.00,Friday
128,1464436.5388023537
202,1260302.960666268
484,1035639.5459141589
521,110785.63290393612
547,12685696.838248163
660,0.0
883,0.0
958,0.0
983,0.0
984,0.0
2,6, 1, 6, 0, 9, 0.00,60.00,Friday
128,4393309.616407061
202,2835681.661499103
484,1035639.5459141589
521,110785.63290393612
547,2477071.6508305073
660,0.0
883,0.0
958,0.0
983,0.0
984,0.0
2,6, 1, 6, 0,10, 0.00,60.00,Friday
128,4393309.616407061
202,2835681.661499103
484,517819.77295707946
521,110785.63290393612
547,37696.495063679075
660,0.0
883,0.0
958,0.0
983,0.0
984,0.0
2,6, 1, 6, 0,11, 0.00,60.00,Friday
128,4393309.616407061
202,2835681.661499103
484,0.0
521,110785.63290393612
547,0.0
660,0.0
883,0.0
958,0.0
983,0.0
984,0.0
2,6, 1, 6, 0,12, 0.00,60.00,Friday
128,4393309.616407061
202,2835681.661499103
484,0.0
521,110785.63290393612
547,0.0
660,0.0
883,0.0
958,0.0
983,0.0
984,0.0
2,6, 1, 6, 0,13, 0.00,60.00,Friday
128,4393309.616407061
202,2520605.921332536
484,0.0
521,110785.63290393612
547,0.0
660,0.0
883,0.0
958,0.0
983,0.0
984,0.0
2,6, 1, 6, 0,14, 0.00,60.00,Friday
128,4393309.616407061
202,2835681.661499103
484,172606.59098569315
521,116965.44741813728
547,0.0
660,0.0
883,0.0
958,0.0
983,0.0
984,0.0
2,6, 1, 6, 0,15, 0.00,60.00,Friday
128,4393309.616407061
202,2835681.661499103
484,0.0
521,134600.40017130997
547,0.0
660,0.0
883,0.0
958,0.0
983,0.0
984,0.0
2,6, 1, 6, 0,16, 0.00,60.00,Friday
128,4393309.616407061
202,2835681.661499103
484,0.0
521,138090.5438408723
547,0.0
660,0.0
883,0.0
958,0.0
983,0.0
984,0.0
2,6, 1, 6, 0,17, 0.00,60.00,Friday
128,4393309.616407061
202,2835681.661499103
484,517819.77295707946
521,117183.39458103418
547,0.0
660,0.0
883,0.0
958,0.0
983,0.0
984,0.0
2,6, 1, 6, 0,18, 0.00,60.00,Friday
128,3417018.5905388244
202,2520605.921332536
484,172606.59098569315
521,110785.63290393612
547,0.0
660,0.0
883,0.0
958,0.0
983,0.0
984,0.0
2,6, 1, 6, 0,19, 0.00,60.00,Friday
128,2440727.5646705893
202,1890454.440999402
484,690426.3639427726
521,110785.63290393612
547,84031.11455386173
660,0.0
883,0.0
958,0.0
983,0.0
984,0.0
2,6, 1, 6, 0,20, 0.00,60.00,Friday
128,2440727.5646705893
202,1890454.440999402
484,1035639.5459141589
521,110785.63290393612
547,1321615.62755953
660,0.0
883,0.0
958,0.0
983,0.0
984,0.0
2,6, 1, 6, 0,21, 0.00,60.00,Friday
128,1464436.5388023537
202,1575378.7008328347
484,1035639.5459141589
521,110785.63290393612
547,4443581.97969284
660,0.0
883,0.0
958,0.0
983,0.0
984,0.0
2,6, 1, 6, 0,22, 0.00,60.00,Friday
128,1464436.5388023537
202,1575378.7008328347
484,1035639.5459141589
521,110785.63290393612
547,5506448.160854159
660,0.0
883,0.0
958,0.0
983,0.0
984,0.0
2,6, 1, 6, 0,23, 0.00,60.00,Friday
128,488145.51293411787
202,1260302.960666268
484,0.0
521,110785.63290393612
547,0.0
660,0.0
883,0.0
958,0.0
983,0.0
984,0.0
2,6, 1, 6, 0,24, 0.00,60.00,Friday
128,244072.75646705893
202,1260302.960666268
484,0.0
521,110785.63290393612
547,0.0
660,0.0
883,0.0
958,0.0
983,0.0
984,0.0
2,7, 1, 7, 0, 1, 0.00,60.00,Saturday
128,244072.75646705893
202,945227.220499701
484,345213.1819713863
521,110785.63290393612
547,0.0
660,0.0
883,0.0
958,0.0
983,0.0
984,0.0
2,7, 1, 7, 0, 2, 0.00,60.00,Saturday
128,244072.75646705893
202,945227.220499701
484,1035639.5459141589
521,110785.63290393612
547,207887.37936921444
660,0.0
883,0.0
958,0.0
983,0.0
984,0.0
2,7, 1, 7, 0, 3, 0.00,60.00,Saturday
128,244072.75646705893
202,945227.220499701
484,1035639.5459141589
521,110785.63290393612
547,1796511.8837418493
660,0.0
883,0.0
958,0.0
983,0.0
984,0.0
2,7, 1, 7, 0, 4, 0.00,60.00,Saturday
128,244072.75646705893
202,945227.220499701
484,1035639.5459141589
521,110785.63290393612
547,2912601.6266949167
660,0.0
883,0.0
958,0.0
983,0.0
984,0.0
2,7, 1, 7, 0, 5, 0.00,60.00,Saturday
128,244072.75646705893
202,945227.220499701
484,1035639.5459141589
521,110785.63290393612
547,3310277.9599472033
660,0.0
883,0.0
958,0.0
983,0.0
984,0.0
2,7, 1, 7, 0, 6, 0.00,60.00,Saturday
128,244072.75646705893
202,945227.220499701
484,1035639.5459141589
521,110785.63290393612
547,3386062.719262328
660,0.0
883,0.0
958,0.0
983,0.0
984,0.0
2,7, 1, 7, 0, 7, 0.00,60.00,Saturday
128,488145.51293411787
202,1260302.960666268
484,1018378.8868155896
521,110785.63290393612
547,16935569.693629026
660,0.0
883,0.0
958,0.0
983,0.0
984,0.0
2,7, 1, 7, 0, 8, 0.00,60.00,Saturday
128,488145.51293411787
202,1260302.960666268
484,1035639.5459141589
521,110785.63290393612
547,12453369.618469672
660,0.0
883,0.0
958,0.0
983,0.0
984,0.0
2,7, 1, 7, 0, 9, 0.00,60.00,Saturday
128,2440727.5646705893
202,1575378.7008328347
484,1035639.5459141589
521,110785.63290393612
547,7999824.9360349635
660,0.0
883,0.0
958,0.0
983,0.0
984,0.0
2,7, 1, 7, 0,10, 0.00,60.00,Saturday
128,2440727.5646705893
202,1575378.7008328347
484,1035639.5459141589
521,110785.63290393612
547,6078169.018494634
660,0.0
883,0.0
958,0.0
983,0.0
984,0.0
2,7, 1, 7, 0,11, 0.00,60.00,Saturday
128,2440727.5646705893
202,1575378.7008328347
484,1035639.5459141589
521,110785.63290393612
547,4273269.774375787
660,0.0
883,0.0
958,0.0
983,0.0
984,0.0
2,7, 1, 7, 0,12, 0.00,60.00,Saturday
128,2440727.5646705893
202,1575378.7008328347
484,1035639.5459141589
521,110785.63290393612
547,4629144.530323546
660,0.0
883,0.0
958,0.0
983,0.0
984,0.0
2,7, 1, 7, 0,13, 0.00,60.00,Saturday
128,2440727.5646705893
202,1575378.7008328347
484,1035639.5459141589
521,110785.63290393612
547,2888810.658119607
660,0.0
883,0.0
958,0.0
983,0.0
984,0.0